Jobname.Temp
SP        R                             6-31G               
Number of atoms                            I               14
Charge                                     I                0
Multiplicity                               I                1
Number of electrons                        I               64
Number of alpha electrons                  I               32
Number of beta electrons                   I               32
Atomic numbers                             I   N=          14
           1           6           6           1           6           6
           1           6           1           6           1           7
           8           8
Current cartesian coordinates              R   N=          42
  4.34632621E+00 -4.00044303E+00 -1.36146332E-02  3.27354530E+00 -2.23150453E+00
 -7.51460966E-03  6.45135426E-01 -2.28863418E+00 -7.10913905E-03 -3.50414132E-01
 -4.10190823E+00 -1.29421178E-02 -7.18147621E-01 -4.10781334E-02  4.46846450E-04
  5.46399444E-01  2.26378733E+00  7.75351027E-03 -5.26550948E-01  4.03233327E+00
  1.36762419E-02  3.17463419E+00  2.32071306E+00  7.16127706E-03  4.16962216E+00
  4.13432785E+00  1.25751943E-02  4.53810595E+00  7.31630537E-02 -3.87055020E-04
  6.60623640E+00  1.17869866E-01 -6.80694694E-04 -2.78645320E+00 -8.59888624E-02
  5.53723516E-04 -3.86656356E+00 -2.06674690E+00  1.84458678E-02 -4.07069686E+00
  2.04687974E+00 -1.90702472E-02
Nuclear charges                            R   N=          14
  1.00000000E+00  6.00000000E+00  6.00000000E+00  1.00000000E+00  6.00000000E+00
  6.00000000E+00  1.00000000E+00  6.00000000E+00  1.00000000E+00  6.00000000E+00
  1.00000000E+00  7.00000000E+00  8.00000000E+00  8.00000000E+00
Number of basis functions                  I               91
Number of contracted shells                I               37
Number of primitive shells                 I              110
Highest angular momentum                   I                1
Largest degree of contraction              I                6
Shell types                                I   N=          37
           0           0           0          -1          -1           0
          -1          -1           0           0           0          -1
          -1           0          -1          -1           0           0
           0          -1          -1           0           0           0
          -1          -1           0           0           0          -1
          -1           0          -1          -1           0          -1
          -1
Number of primitives per shell             I   N=          37
           3           1           6           3           1           6
           3           1           3           1           6           3
           1           6           3           1           3           1
           6           3           1           3           1           6
           3           1           3           1           6           3
           1           6           3           1           6           3
           1
Shell to atom map                          I   N=          37
           1           1           2           2           2           3
           3           3           4           4           5           5
           5           6           6           6           7           7
           8           8           8           9           9          10
          10          10          11          11          12          12
          12          13          13          13          14          14
          14
Primitive exponents                        R   N=         110
  1.87311370E+01  2.82539370E+00  6.40121700E-01  1.61277800E-01  3.04752490E+03
  4.57369510E+02  1.03948690E+02  2.92101550E+01  9.28666300E+00  3.16392700E+00
  7.86827240E+00  1.88128850E+00  5.44249300E-01  1.68714400E-01  3.04752490E+03
  4.57369510E+02  1.03948690E+02  2.92101550E+01  9.28666300E+00  3.16392700E+00
  7.86827240E+00  1.88128850E+00  5.44249300E-01  1.68714400E-01  1.87311370E+01
  2.82539370E+00  6.40121700E-01  1.61277800E-01  3.04752490E+03  4.57369510E+02
  1.03948690E+02  2.92101550E+01  9.28666300E+00  3.16392700E+00  7.86827240E+00
  1.88128850E+00  5.44249300E-01  1.68714400E-01  3.04752490E+03  4.57369510E+02
  1.03948690E+02  2.92101550E+01  9.28666300E+00  3.16392700E+00  7.86827240E+00
  1.88128850E+00  5.44249300E-01  1.68714400E-01  1.87311370E+01  2.82539370E+00
  6.40121700E-01  1.61277800E-01  3.04752490E+03  4.57369510E+02  1.03948690E+02
  2.92101550E+01  9.28666300E+00  3.16392700E+00  7.86827240E+00  1.88128850E+00
  5.44249300E-01  1.68714400E-01  1.87311370E+01  2.82539370E+00  6.40121700E-01
  1.61277800E-01  3.04752490E+03  4.57369510E+02  1.03948690E+02  2.92101550E+01
  9.28666300E+00  3.16392700E+00  7.86827240E+00  1.88128850E+00  5.44249300E-01
  1.68714400E-01  1.87311370E+01  2.82539370E+00  6.40121700E-01  1.61277800E-01
  4.17351100E+03  6.27457900E+02  1.42902100E+02  4.02343300E+01  1.28202100E+01
  4.39043700E+00  1.16263580E+01  2.71628000E+00  7.72218000E-01  2.12031300E-01
  5.48467170E+03  8.25234950E+02  1.88046960E+02  5.29645000E+01  1.68975700E+01
  5.79963530E+00  1.55396160E+01  3.59993360E+00  1.01376180E+00  2.70005800E-01
  5.48467170E+03  8.25234950E+02  1.88046960E+02  5.29645000E+01  1.68975700E+01
  5.79963530E+00  1.55396160E+01  3.59993360E+00  1.01376180E+00  2.70005800E-01
Contraction coefficients                   R   N=         110
  3.34945995E-02  2.34726947E-01  8.13757318E-01  1.00000000E+00  1.83470016E-03
  1.40373012E-02  6.88426061E-02  2.32184421E-01  4.67941342E-01  3.62312032E-01
 -1.19332409E-01 -1.60854212E-01  1.14345648E+00  1.00000000E+00  1.83470016E-03
  1.40373012E-02  6.88426061E-02  2.32184421E-01  4.67941342E-01  3.62312032E-01
 -1.19332409E-01 -1.60854212E-01  1.14345648E+00  1.00000000E+00  3.34945995E-02
  2.34726947E-01  8.13757318E-01  1.00000000E+00  1.83470016E-03  1.40373012E-02
  6.88426061E-02  2.32184421E-01  4.67941342E-01  3.62312032E-01 -1.19332409E-01
 -1.60854212E-01  1.14345648E+00  1.00000000E+00  1.83470016E-03  1.40373012E-02
  6.88426061E-02  2.32184421E-01  4.67941342E-01  3.62312032E-01 -1.19332409E-01
 -1.60854212E-01  1.14345648E+00  1.00000000E+00  3.34945995E-02  2.34726947E-01
  8.13757318E-01  1.00000000E+00  1.83470016E-03  1.40373012E-02  6.88426061E-02
  2.32184421E-01  4.67941342E-01  3.62312032E-01 -1.19332409E-01 -1.60854212E-01
  1.14345648E+00  1.00000000E+00  3.34945995E-02  2.34726947E-01  8.13757318E-01
  1.00000000E+00  1.83470016E-03  1.40373012E-02  6.88426061E-02  2.32184421E-01
  4.67941342E-01  3.62312032E-01 -1.19332409E-01 -1.60854212E-01  1.14345648E+00
  1.00000000E+00  3.34945995E-02  2.34726947E-01  8.13757318E-01  1.00000000E+00
  1.83479944E-03  1.39949958E-02  6.85869792E-02  2.32240930E-01  4.69069858E-01
  3.60454891E-01 -1.14961023E-01 -1.69118034E-01  1.14585223E+00  1.00000000E+00
  1.83109981E-03  1.39500985E-02  6.84450927E-02  2.32714275E-01  4.70192950E-01
  3.58520862E-01 -1.10777504E-01 -1.48026305E-01  1.13076704E+00  1.00000000E+00
  1.83109981E-03  1.39500985E-02  6.84450927E-02  2.32714275E-01  4.70192950E-01
  3.58520862E-01 -1.10777504E-01 -1.48026305E-01  1.13076704E+00  1.00000000E+00
P(S=P) Contraction coefficients            R   N=         110
  0.00000000E+00  0.00000000E+00  0.00000000E+00  0.00000000E+00  0.00000000E+00
  0.00000000E+00  0.00000000E+00  0.00000000E+00  0.00000000E+00  0.00000000E+00
  6.89990956E-02  3.16423980E-01  7.44308252E-01  1.00000000E+00  0.00000000E+00
  0.00000000E+00  0.00000000E+00  0.00000000E+00  0.00000000E+00  0.00000000E+00
  6.89990956E-02  3.16423980E-01  7.44308252E-01  1.00000000E+00  0.00000000E+00
  0.00000000E+00  0.00000000E+00  0.00000000E+00  0.00000000E+00  0.00000000E+00
  0.00000000E+00  0.00000000E+00  0.00000000E+00  0.00000000E+00  6.89990956E-02
  3.16423980E-01  7.44308252E-01  1.00000000E+00  0.00000000E+00  0.00000000E+00
  0.00000000E+00  0.00000000E+00  0.00000000E+00  0.00000000E+00  6.89990956E-02
  3.16423980E-01  7.44308252E-01  1.00000000E+00  0.00000000E+00  0.00000000E+00
  0.00000000E+00  0.00000000E+00  0.00000000E+00  0.00000000E+00  0.00000000E+00
  0.00000000E+00  0.00000000E+00  0.00000000E+00  6.89990956E-02  3.16423980E-01
  7.44308252E-01  1.00000000E+00  0.00000000E+00  0.00000000E+00  0.00000000E+00
  0.00000000E+00  0.00000000E+00  0.00000000E+00  0.00000000E+00  0.00000000E+00
  0.00000000E+00  0.00000000E+00  6.89990956E-02  3.16423980E-01  7.44308252E-01
  1.00000000E+00  0.00000000E+00  0.00000000E+00  0.00000000E+00  0.00000000E+00
  0.00000000E+00  0.00000000E+00  0.00000000E+00  0.00000000E+00  0.00000000E+00
  0.00000000E+00  6.75800232E-02  3.23907111E-01  7.40895255E-01  1.00000000E+00
  0.00000000E+00  0.00000000E+00  0.00000000E+00  0.00000000E+00  0.00000000E+00
  0.00000000E+00  7.08742995E-02  3.39752798E-01  7.27158595E-01  1.00000000E+00
  0.00000000E+00  0.00000000E+00  0.00000000E+00  0.00000000E+00  0.00000000E+00
  0.00000000E+00  7.08742995E-02  3.39752798E-01  7.27158595E-01  1.00000000E+00
Coordinates of each shell                  R   N=         111
  4.34632621E+00 -4.00044303E+00 -1.36146332E-02  4.34632621E+00 -4.00044303E+00
 -1.36146332E-02  3.27354530E+00 -2.23150453E+00 -7.51460966E-03  3.27354530E+00
 -2.23150453E+00 -7.51460966E-03  3.27354530E+00 -2.23150453E+00 -7.51460966E-03
  6.45135426E-01 -2.28863418E+00 -7.10913905E-03  6.45135426E-01 -2.28863418E+00
 -7.10913905E-03  6.45135426E-01 -2.28863418E+00 -7.10913905E-03 -3.50414132E-01
 -4.10190823E+00 -1.29421178E-02 -3.50414132E-01 -4.10190823E+00 -1.29421178E-02
 -7.18147621E-01 -4.10781334E-02  4.46846450E-04 -7.18147621E-01 -4.10781334E-02
  4.46846450E-04 -7.18147621E-01 -4.10781334E-02  4.46846450E-04  5.46399444E-01
  2.26378733E+00  7.75351027E-03  5.46399444E-01  2.26378733E+00  7.75351027E-03
  5.46399444E-01  2.26378733E+00  7.75351027E-03 -5.26550948E-01  4.03233327E+00
  1.36762419E-02 -5.26550948E-01  4.03233327E+00  1.36762419E-02  3.17463419E+00
  2.32071306E+00  7.16127706E-03  3.17463419E+00  2.32071306E+00  7.16127706E-03
  3.17463419E+00  2.32071306E+00  7.16127706E-03  4.16962216E+00  4.13432785E+00
  1.25751943E-02  4.16962216E+00  4.13432785E+00  1.25751943E-02  4.53810595E+00
  7.31630537E-02 -3.87055020E-04  4.53810595E+00  7.31630537E-02 -3.87055020E-04
  4.53810595E+00  7.31630537E-02 -3.87055020E-04  6.60623640E+00  1.17869866E-01
 -6.80694694E-04  6.60623640E+00  1.17869866E-01 -6.80694694E-04 -2.78645320E+00
 -8.59888624E-02  5.53723516E-04 -2.78645320E+00 -8.59888624E-02  5.53723516E-04
 -2.78645320E+00 -8.59888624E-02  5.53723516E-04 -3.86656356E+00 -2.06674690E+00
  1.84458678E-02 -3.86656356E+00 -2.06674690E+00  1.84458678E-02 -3.86656356E+00
 -2.06674690E+00  1.84458678E-02 -4.07069686E+00  2.04687974E+00 -1.90702472E-02
 -4.07069686E+00  2.04687974E+00 -1.90702472E-02 -4.07069686E+00  2.04687974E+00
 -1.90702472E-02
Overlap Matrix                             R   N=        4186
  1.00000000E+00  6.58292049E-01  1.00000000E+00  3.20580308E-02  9.16687644E-02
  1.00000000E+00  2.70688725E-01  4.73979833E-01  2.19058872E-01  1.00000000E+00
  1.89954751E-01  1.37755203E-01 -1.50969212E-16  3.00544550E-16  1.00000000E+00
 -3.13221711E-01 -2.27148413E-01  3.63025795E-17  5.84895547E-16 -8.74106895E-32
  1.00000000E+00 -1.08011658E-03 -7.83300647E-04  5.85820081E-20 -9.11970149E-19
 -1.58456512E-33  2.83731949E-34  1.00000000E+00  3.75131462E-01  7.02368851E-01
  1.84261053E-01  8.12273068E-01  1.98745875E-16  0.00000000E+00  0.00000000E+00
  1.00000000E+00  2.66864076E-01  3.02519427E-01 -2.31799126E-17  3.57524449E-16
  5.69754058E-01  0.00000000E+00  0.00000000E+00 -3.64818029E-16  1.00000000E+00
 -4.40039652E-01 -4.98832759E-01 -3.85326035E-20  0.00000000E+00  0.00000000E+00
  5.69754058E-01  0.00000000E+00  0.00000000E+00  0.00000000E+00  1.00000000E+00
 -1.51743672E-03 -1.72017941E-03  5.62648960E-20  0.00000000E+00  0.00000000E+00
  0.00000000E+00  5.69754058E-01  0.00000000E+00  0.00000000E+00  0.00000000E+00
  1.00000000E+00  3.44468575E-05  1.34005088E-02  2.36442675E-06  1.57051996E-02
 -3.54475260E-02 -7.70467630E-04  5.46829848E-06  5.98510406E-02 -1.24595595E-01
 -2.70814027E-03  1.92206898E-05  1.00000000E+00  7.00088820E-03  1.04512543E-01
  1.57051996E-02  1.81428519E-01 -2.58074546E-01 -5.60936421E-03  3.98117671E-05
  3.39612517E-01 -5.49559561E-01 -1.19449197E-02  8.47775867E-05  2.19058872E-01
  1.00000000E+00  1.38125901E-02  9.91503050E-02  3.54475260E-02  2.58074546E-01
 -3.16291946E-01 -9.07698395E-03  6.44227682E-05  2.47083461E-01 -1.87631323E-01
 -9.05267569E-03  6.42502434E-05 -2.56667876E-19 -1.33313547E-16  1.00000000E+00
 -6.38835320E-03 -4.58572336E-02  7.70467630E-04  5.60936421E-03 -9.07698395E-03
  1.01122887E-01  1.40025731E-06  5.37046812E-03 -9.05267569E-03  2.28665669E-01
  1.39650741E-06  2.67679562E-16  3.08759553E-16 -8.13152854E-32  1.00000000E+00
 -2.42780579E-05 -1.74274110E-04 -5.46829848E-06 -3.98117671E-05  6.44227682E-05
  1.40025731E-06  1.01320170E-01 -3.81162317E-05  6.42502434E-05  1.39650741E-06
  2.28862423E-01  5.07953892E-19 -4.86139045E-19 -4.26810008E-35  7.30394242E-34
  1.00000000E+00  7.00935189E-02  2.53711796E-01  5.98510406E-02  3.39612517E-01
 -2.47083461E-01 -5.37046812E-03  3.81162317E-05  5.58187530E-01 -6.02627984E-01
 -1.30983853E-02  9.29641660E-05  1.84261053E-01  8.12273068E-01 -4.58674248E-17
  1.83469699E-16 -7.46514793E-19  1.00000000E+00  1.71179115E-01  3.77015425E-01
  1.24595595E-01  5.49559561E-01 -1.87631323E-01 -9.05267569E-03  6.42502434E-05
  6.02627984E-01 -9.24190635E-02 -1.41412216E-02  1.00365567E-04  9.63315088E-21
  7.64907364E-18  5.69754058E-01 -1.67332635E-32  0.00000000E+00  0.00000000E+00
  1.00000000E+00 -7.91707161E-02 -1.74370461E-01  2.70814027E-03  1.19449197E-02
 -9.05267569E-03  2.28665669E-01  1.39650741E-06  1.30983853E-02 -1.41412216E-02
  5.57880164E-01  2.18148992E-06  2.82333890E-17 -3.05962945E-17 -1.67332635E-32
  5.69754058E-01  0.00000000E+00  0.00000000E+00  0.00000000E+00  1.00000000E+00
 -3.00877420E-04 -6.62670959E-04 -1.92206898E-05 -8.47775867E-05  6.42502434E-05
  1.39650741E-06  2.28862423E-01 -9.29641660E-05  1.00365567E-04  2.18148992E-06
  5.58187515E-01  1.57201908E-19 -6.38531551E-19  0.00000000E+00  0.00000000E+00
  5.69754058E-01  0.00000000E+00  0.00000000E+00  0.00000000E+00  1.00000000E+00
  5.69232768E-04  3.65727813E-02  3.44021062E-05  6.99598054E-03 -1.35147364E-02
 -6.97524723E-03 -2.02406631E-05  7.00709513E-02 -1.67553081E-01 -8.64777625E-02
 -2.50939816E-04  3.20747607E-02  2.70762680E-01 -1.76334649E-01 -3.21172403E-01
 -1.03315425E-03  3.75178661E-01 -2.47683333E-01 -4.51125469E-01 -1.45119006E-03
  1.00000000E+00  3.65727813E-02  1.68693209E-01  1.33955527E-02  1.04482061E-01
 -9.70521751E-02 -5.00907230E-02 -1.45352475E-04  2.53662088E-01 -3.69076062E-01
 -1.90488124E-01 -5.52755452E-04  9.16819553E-02  4.74033278E-01 -1.27852998E-01
 -2.32868893E-01 -7.49097635E-04  7.02422355E-01 -2.80761915E-01 -5.11374137E-01
 -1.64499926E-03  6.58292049E-01  1.00000000E+00  5.56463131E-11  2.87401957E-04
  7.49442503E-16  2.07796964E-05 -6.96479889E-05  3.82190705E-05  1.38913343E-07
  6.32651191E-03 -1.99864142E-02  1.09674692E-02  3.98630263E-05  2.37081136E-06
  1.57180788E-02 -1.84008900E-02  3.03363500E-02  1.01986787E-04  5.98675587E-02
 -6.46421089E-02  1.06571238E-01  3.58278377E-04  3.45109293E-05  1.34075964E-02
  1.00000000E+00  4.86787962E-06  4.98487555E-03  2.07796964E-05  4.59114330E-03
 -8.92817594E-03  4.89930279E-03  1.78073019E-05  5.88154356E-02 -1.45465238E-01
  7.98234995E-02  2.90131314E-04  1.57180788E-02  1.81507359E-01 -1.33918425E-01
  2.20782592E-01  7.42241810E-04  3.39685372E-01 -2.85102117E-01  4.70029308E-01
  1.58017623E-03  7.00790953E-03  1.04556131E-01  2.19058872E-01  1.00000000E+00
  1.28014044E-05  6.02938425E-03  6.96479889E-05  8.92817594E-03 -1.56733798E-02
  9.70532912E-03  3.52755756E-05  6.11511480E-02 -1.18264420E-01  8.53636239E-02
  3.10267784E-04  1.84008900E-02  1.33918425E-01 -1.10342320E-02  1.85315963E-01
  6.23007703E-04  1.28183953E-01  1.16842947E-01  1.84763554E-01  6.21150577E-04
  1.37375445E-03  9.85536028E-03  5.39271632E-17  7.97809067E-17  1.00000000E+00
 -1.00080349E-05 -4.71372410E-03 -3.82190705E-05 -4.89930279E-03  9.70532912E-03
 -3.31277166E-03 -1.93573387E-05 -3.35564612E-02  8.53636239E-02 -9.54617927E-03
 -1.70258274E-04 -3.03363500E-02 -2.20782592E-01  1.85315963E-01 -2.04146900E-01
 -1.02711226E-03 -2.11328542E-01  1.84763554E-01 -7.56940711E-02 -1.02405053E-03
 -1.51701805E-02 -1.08831381E-01  4.48990628E-20 -2.59975260E-18  1.92579278E-33
  1.00000000E+00 -3.55430185E-08 -1.67405474E-05 -1.38913343E-07 -1.78073019E-05
  3.52755756E-05 -1.93573387E-05  2.01292064E-03 -1.21966341E-04  3.10267784E-04
 -1.70258274E-04  3.72961677E-02 -1.01986787E-04 -7.42241810E-04  6.23007703E-04
 -1.02711226E-03  1.01368015E-01 -7.10458545E-04  6.21150577E-04 -1.02405053E-03
  2.28910134E-01 -5.00176072E-05 -3.58827983E-04  2.39648887E-20  2.91185446E-20
 -1.87828928E-35 -9.40328505E-37  1.00000000E+00  2.49767177E-03  3.31094612E-02
  6.32651191E-03  5.88154356E-02 -6.11511480E-02  3.35564612E-02  1.21966341E-04
  1.73971567E-01 -2.85240688E-01  1.56524749E-01  5.68914309E-04  5.98675587E-02
  3.39685372E-01 -1.28183953E-01  2.11328542E-01  7.10458545E-04  5.58267418E-01
 -3.12611098E-01  5.15381574E-01  1.73264454E-03  7.01257912E-02  2.53782868E-01
  1.84261053E-01  8.12273068E-01 -3.26717356E-17 -8.42646711E-18  9.00927453E-20
  1.00000000E+00  8.29082984E-03  6.73229957E-02  1.99864142E-02  1.45465238E-01
 -1.18264420E-01  8.53636239E-02  3.10267784E-04  2.85240688E-01 -2.93703993E-01
  2.56635195E-01  9.32781785E-04  6.46421089E-02  2.85102117E-01  1.16842947E-01
  1.84763554E-01  6.21150577E-04  3.12611098E-01  3.83215650E-01  2.88596459E-01
  9.70223041E-04  1.70154296E-02  3.74690318E-02  5.81424445E-18  4.30725044E-18
  5.69754058E-01  2.23847670E-34 -2.93824788E-37  0.00000000E+00  1.00000000E+00
 -6.48170408E-03 -5.26325765E-02 -1.09674692E-02 -7.98234995E-02  8.53636239E-02
 -9.54617927E-03 -1.70258274E-04 -1.56524749E-01  2.56635195E-01  3.31439745E-02
 -5.11860477E-04 -1.06571238E-01 -4.70029308E-01  1.84763554E-01 -7.56940711E-02
 -1.02405053E-03 -5.15381574E-01  2.88596459E-01  8.24772167E-02 -1.59954359E-03
 -1.87899037E-01 -4.13765339E-01  3.63409262E-19 -4.73461728E-18  2.23847670E-34
  5.69754058E-01 -5.31918077E-37  0.00000000E+00  0.00000000E+00  1.00000000E+00
 -2.30194368E-05 -1.86921873E-04 -3.98630263E-05 -2.90131314E-04  3.10267784E-04
 -1.70258274E-04  3.72961677E-02 -5.68914309E-04  9.32781785E-04 -5.11860477E-04
  1.73969707E-01 -3.58278377E-04 -1.58017623E-03  6.21150577E-04 -1.02405053E-03
  2.28910134E-01 -1.73264454E-03  9.70223041E-04 -1.59954359E-03  5.58262040E-01
 -6.19521977E-04 -1.36422584E-03  2.45315468E-21  8.06323187E-20 -2.93824788E-37
 -5.31918077E-37  5.69754058E-01  0.00000000E+00  0.00000000E+00  0.00000000E+00
  1.00000000E+00  7.53999926E-14  4.21153664E-05  1.33308433E-20  7.82731381E-07
 -1.78117672E-06  2.93600329E-06  9.97204447E-09  2.05695688E-03 -4.43799786E-03
  7.31537538E-03  2.48464465E-05  7.46050234E-16  2.07513609E-05 -1.72041424E-06
  7.93231667E-05  2.58972595E-07  6.32356367E-03 -4.94140797E-04  2.27833576E-02
  7.43826234E-05  5.56129618E-11  2.87351932E-04  2.36542270E-06  1.57072103E-02
  1.70562696E-02  3.10881325E-02  9.85526214E-05  5.98536199E-02  5.99464292E-02
  1.09263196E-01  3.46375724E-04  1.00000000E+00  1.28518092E-07  1.08130367E-03
  7.82731381E-07  7.04282750E-04 -9.27020343E-04  1.52805432E-03  5.18998929E-06
  2.43766618E-02 -4.12831076E-02  6.80490254E-02  2.31126413E-04  2.07513609E-05
  4.58758257E-03 -2.20669037E-04  1.01743908E-02  3.32171356E-05  5.87939766E-02
 -3.59682676E-03  1.65838949E-01  5.41427488E-04  4.86627669E-06  4.98418598E-03
  1.57072103E-02  1.81440830E-01  1.24170566E-01  2.26323288E-01  7.17468418E-04
  3.39623894E-01  2.64405910E-01  4.81927535E-01  1.52776053E-03  2.19058872E-01
  1.00000000E+00  2.53508932E-07  9.59874470E-04  1.78117672E-06  9.27020343E-04
 -9.26274439E-04  2.02467600E-03  6.87674950E-06  1.69230471E-02 -1.42310687E-02
  4.83603276E-02  1.64254359E-04  1.72041424E-06  2.20669037E-04  2.00058744E-03
  4.98536114E-04  1.62761015E-06  1.51202835E-03  3.71876477E-02  4.38673580E-03
  1.43217221E-05 -2.26611736E-06 -1.06752908E-03 -1.70562696E-02 -1.24170566E-01
  4.65796164E-03 -1.76198950E-01 -5.58569042E-04 -1.18877795E-01  1.32463651E-01
 -1.75718752E-01 -5.57046764E-04  2.68854203E-17 -1.33313547E-16  1.00000000E+00
 -4.17912882E-07 -1.58236597E-03 -2.93600329E-06 -1.52805432E-03  2.02467600E-03
 -3.03534547E-03 -1.13352925E-05 -2.78951109E-02  4.83603276E-02 -6.46072107E-02
 -2.70748732E-04 -7.93231667E-05 -1.01743908E-02  4.98536114E-04 -2.09746125E-02
 -7.50442470E-05 -6.97151151E-02  4.38673580E-03 -1.64976507E-01 -6.60331870E-04
 -1.60851861E-05 -7.57745569E-03 -3.10881325E-02 -2.26323288E-01 -1.76198950E-01
 -2.19826228E-01 -1.01809298E-03 -2.16676255E-01 -1.75718752E-01 -9.14087487E-02
 -1.01531836E-03  1.05215903E-17  2.44085565E-17  4.50837373E-32  1.00000000E+00
 -1.42555780E-09 -5.39766597E-06 -9.97204447E-09 -5.18998929E-06  6.87674950E-06
 -1.13352925E-05  3.01991460E-04 -9.47448824E-05  1.64254359E-04 -2.70748732E-04
  1.51066333E-02 -2.58972595E-07 -3.32171356E-05  1.62761015E-06 -7.50442470E-05
  2.01115502E-03 -2.27604432E-04  1.43217221E-05 -6.60331870E-04  3.72806343E-02
 -5.22948396E-08 -2.46352034E-05 -9.85526214E-05 -7.17468418E-04 -5.58569042E-04
 -1.01809298E-03  1.01324960E-01 -6.86886320E-04 -5.57046764E-04 -1.01531836E-03
  2.28867201E-01 -3.26912314E-19  4.58289361E-19  1.44290143E-35  5.77160573E-35
  1.00000000E+00  4.74336151E-04  1.19542667E-02  2.05695688E-03  2.43766618E-02
 -1.69230471E-02  2.78951109E-02  9.47448824E-05  9.70943383E-02 -1.08762291E-01
  1.79278362E-01  6.08913419E-04  6.32356367E-03  5.87939766E-02 -1.51202835E-03
  6.97151151E-02  2.27604432E-04  1.73929486E-01 -7.05382598E-03  3.25230867E-01
  1.06180685E-03  2.49729540E-03  3.31064050E-02  5.98536199E-02  3.39623894E-01
  1.18877795E-01  2.16676255E-01  6.86886320E-04  5.58200005E-01  2.89935177E-01
  5.28459236E-01  1.67527087E-03  1.84261053E-01  8.12273068E-01 -6.59784459E-18
 -1.57078321E-16  3.06793596E-19  1.00000000E+00  1.17884544E-03  1.82379136E-02
  4.43799786E-03  4.12831076E-02 -1.42310687E-02  4.83603276E-02  1.64254359E-04
  1.08762291E-01 -2.47380586E-02  2.00822476E-01  6.82087336E-04  4.94140797E-04
  3.59682676E-03  3.71876477E-02  4.38673580E-03  1.43217221E-05  7.05382598E-03
  1.73643414E-01  1.31899541E-02  4.30622827E-05 -1.46791294E-03 -1.19204098E-02
 -5.99464292E-02 -2.64405910E-01  1.32463651E-01 -1.75718752E-01 -5.57046764E-04
 -2.89935177E-01  4.07604509E-01 -2.74487497E-01 -8.70153982E-04  1.24410279E-18
  1.67091160E-18  5.69754058E-01  0.00000000E+00  0.00000000E+00  0.00000000E+00
  1.00000000E+00 -1.94334256E-03 -3.00654458E-02 -7.31537538E-03 -6.80490254E-02
  4.83603276E-02 -6.46072107E-02 -2.70748732E-04 -1.79278362E-01  2.00822476E-01
 -2.33931463E-01 -1.12431891E-03 -2.27833576E-02 -1.65838949E-01  4.38673580E-03
 -1.64976507E-01 -6.60331870E-04 -3.25230867E-01  1.31899541E-02 -4.34219936E-01
 -1.98547336E-03 -1.04194307E-02 -8.46125679E-02 -1.09263196E-01 -4.81927535E-01
 -1.75718752E-01 -9.14087487E-02 -1.01531836E-03 -5.28459236E-01 -2.74487497E-01
  5.78969579E-02 -1.58601282E-03 -3.83743799E-17  2.39126482E-17  0.00000000E+00
  5.69754058E-01 -1.11923835E-34  0.00000000E+00  0.00000000E+00  1.00000000E+00
 -6.62900634E-06 -1.02557333E-04 -2.48464465E-05 -2.31126413E-04  1.64254359E-04
 -2.70748732E-04  1.51066333E-02 -6.08913419E-04  6.82087336E-04 -1.12431891E-03
  9.70905196E-02 -7.43826234E-05 -5.41427488E-04  1.43217221E-05 -6.60331870E-04
  3.72806343E-02 -1.06180685E-03  4.30622827E-05 -1.98547336E-03  1.73923004E-01
 -3.38747997E-05 -2.75085451E-04 -3.46375724E-04 -1.52776053E-03 -5.57046764E-04
 -1.01531836E-03  2.28867201E-01 -1.67527087E-03 -8.70153982E-04 -1.58601282E-03
  5.58194978E-01 -9.19667549E-20 -4.67043909E-20  0.00000000E+00 -1.11923835E-34
  5.69754058E-01  0.00000000E+00  0.00000000E+00  0.00000000E+00  1.00000000E+00
  3.55826756E-13  6.83566505E-06  7.55465355E-14  1.28655684E-07 -2.53791664E-07
  4.18334094E-07  1.41524350E-09  4.74567972E-04 -1.17947482E-03  1.94417154E-03
  6.57722181E-06  5.55793913E-11  4.86466279E-06 -2.95969881E-06  1.59668664E-05
  5.25042099E-08  2.49691639E-03 -1.91753584E-03  1.03446467E-02  3.40165370E-05
  4.16368145E-10  1.18642412E-04  3.44389505E-05  7.00002130E-03  7.14935689E-04
  1.51997795E-02  4.93649854E-05  7.00895331E-02  8.86079130E-03  1.88383481E-01
  6.11821231E-04  3.20766335E-02  2.70770957E-01 -1.90050754E-01  3.13260979E-01
  1.04908823E-03  3.75183943E-01 -2.66943701E-01  4.40003752E-01  1.47354055E-03
  1.00000000E+00  6.83566505E-06  8.10312819E-04  4.21391804E-05  1.08179076E-03
 -9.60355031E-04  1.58298836E-03  5.35532251E-06  1.19578528E-02 -1.82441985E-02
  3.00725804E-02  1.01736924E-04  2.87301558E-04  4.98349156E-03 -1.39452849E-03
  7.52314732E-03  2.47385364E-05  3.31033271E-02 -1.55725600E-02  8.40102324E-02
  2.76252758E-04  1.18642412E-04  4.80497684E-03  1.33996334E-02  1.04507159E-01
  5.13236432E-03  1.09115837E-01  3.54380252E-04  2.53703017E-01  1.95159899E-02
  4.14916680E-01  1.34754296E-03  9.16834316E-02  4.74039260E-01 -1.37794977E-01
  2.27127694E-01  7.60634121E-04  7.02428343E-01 -3.02592847E-01  4.98764299E-01
  1.67032535E-03  6.58292049E-01  1.00000000E+00  5.55080703E-11  2.87194465E-04
  7.48210205E-16  2.07694135E-05 -1.72496825E-06  7.93887647E-05  2.55941306E-07
  6.32544230E-03 -4.95164362E-04  2.27891076E-02  7.34697660E-05  1.33425931E-20
  7.82937527E-07  1.65252361E-06  3.01129032E-06  9.32287452E-09  2.05714301E-03
  4.11673114E-03  7.50166143E-03  2.32249437E-05  7.55630860E-14  4.21418678E-05
  7.49194273E-16  2.07776260E-05  6.79153828E-05  4.12049688E-05  1.17143253E-07
  6.32629657E-03  1.94905025E-02  1.18250905E-02  3.36180226E-05  2.36797603E-06
  1.57123623E-02  3.54615093E-02  7.68071569E-04 -7.99071829E-06  5.98602282E-02
  1.24606425E-01  2.69888829E-03 -2.80781855E-05  3.44598163E-05  1.34019430E-02
  1.00000000E+00  4.86123258E-06  4.98201519E-03  2.07694135E-05  4.58985135E-03
 -2.21170642E-04  1.01790071E-02  3.28160841E-05  5.88076506E-02 -3.60404205E-03
  1.65869978E-01  5.34747947E-04  7.82937527E-07  7.04389281E-04  8.59965923E-04
  1.56706207E-03  4.85158236E-06  2.43783932E-02  3.82938703E-02  6.97805227E-02
  2.16038637E-04  1.28671216E-07  1.08184572E-03  2.07776260E-05  4.59088319E-03
  8.70644529E-03  5.28229087E-03  1.50172359E-05  5.88138684E-02  1.41856951E-01
  8.60660871E-02  2.44680720E-04  1.57123623E-02  1.81472370E-01  2.58124196E-01
  5.59079013E-03 -5.81644091E-05  3.39653040E-01  5.49588214E-01  1.19036976E-02
 -1.23841446E-04  7.00230879E-03  1.04521364E-01  2.19058872E-01  1.00000000E+00
  2.95762568E-06  1.39411515E-03  1.72496825E-06  2.21170642E-04  2.00155725E-03
  4.99651436E-04  1.61082543E-06  1.51507257E-03  3.71962057E-02  4.39537401E-03
  1.41702390E-05 -1.65252361E-06 -8.59965923E-04 -7.54801214E-04 -1.92588109E-03
 -5.96247650E-06 -1.56977080E-02 -1.01333377E-02 -4.59968965E-02 -1.42405165E-04
 -2.35450849E-07 -8.90891125E-04 -6.79153828E-05 -8.70644529E-03 -1.48068682E-02
 -1.02047129E-02 -2.90113864E-05 -5.96342346E-02 -1.10647515E-01 -8.97587257E-02
 -2.55178670E-04 -3.54615093E-02 -2.58124196E-01 -3.16330444E-01 -9.04663920E-03
  9.41177206E-05 -2.47097708E-01 -1.87599345E-01 -9.02088792E-03  9.38498143E-05
 -1.38154164E-02 -9.91587831E-02 -1.59433783E-16 -4.14918406E-17  1.00000000E+00
 -1.59560816E-05 -7.52110560E-03 -7.93887647E-05 -1.01790071E-02  4.99651436E-04
 -2.09832039E-02 -7.41355334E-05 -6.97286687E-02  4.39537401E-03 -1.64997993E-01
 -6.52161434E-04 -3.01129032E-06 -1.56706207E-03 -1.92588109E-03 -3.20733660E-03
 -1.08650477E-05 -2.86049506E-02 -4.59968965E-02 -6.87086136E-02 -2.59496017E-04
 -4.28990328E-07 -1.62319940E-03 -4.12049688E-05 -5.28229087E-03 -1.02047129E-02
 -4.17843065E-03 -1.76015097E-05 -3.61807102E-02 -8.97587257E-02 -1.71617877E-02
 -1.54819552E-04 -7.68071569E-04 -5.59079013E-03 -9.04663920E-03  1.01152761E-01
  2.03852421E-06 -5.35196408E-03 -9.02088792E-03  2.28695494E-01  2.03272155E-06
  6.38896597E-03  4.58561706E-02 -7.84414655E-17 -6.20054326E-17  1.48591720E-31
  1.00000000E+00 -5.24432739E-08 -2.47198160E-05 -2.55941306E-07 -3.28160841E-05
  1.61082543E-06 -7.41355334E-05  2.01217473E-03 -2.24798139E-04  1.41702390E-05
 -6.52161434E-04  3.72896064E-02 -9.32287452E-09 -4.85158236E-06 -5.96247650E-06
 -1.08650477E-05  3.02042313E-04 -8.85601640E-05 -1.42405165E-04 -2.59496017E-04
  1.51078480E-02 -1.34277915E-09 -5.08076328E-06 -1.17143253E-07 -1.50172359E-05
 -2.90113864E-05 -1.76015097E-05  2.01282474E-03 -1.02859587E-04 -2.55178670E-04
 -1.54819552E-04  3.72953242E-02  7.99071829E-06  5.81644091E-05  9.41177206E-05
  2.03852421E-06  1.01348684E-01  5.56797557E-05  9.38498143E-05  2.03272155E-06
  2.28890859E-01  2.43184141E-05  1.74543009E-04 -2.25172939E-19  4.65896714E-19
  3.47934261E-34  2.90218204E-34  1.00000000E+00  2.49611060E-03  3.30967828E-02
  6.32544230E-03  5.88076506E-02 -1.51507257E-03  6.97286687E-02  2.24798139E-04
  1.73956302E-01 -7.06742675E-03  3.25266438E-01  1.04862593E-03  2.05714301E-03
  2.43783932E-02  1.56977080E-02  2.86049506E-02  8.85601640E-05  9.70988999E-02
  1.00884595E-01  1.83835682E-01  5.69150370E-04  4.74594132E-04  1.19582575E-02
  6.32629657E-03  5.88138684E-02  5.96342346E-02  3.61807102E-02  1.02859587E-04
  1.73968494E-01  2.78167727E-01  1.68767252E-01  4.79795169E-04  5.98602282E-02
  3.39653040E-01  2.47097708E-01  5.35196408E-03 -5.56797557E-05  5.58231966E-01
  6.02635802E-01  1.30526714E-02 -1.35794923E-04  7.01000498E-02  2.53726179E-01