Jobname.Temp
FOPT      R                             6-31G               
Number of atoms                            I               13
Charge                                     I                0
Multiplicity                               I                1
Number of electrons                        I               48
Number of alpha electrons                  I               24
Number of beta electrons                   I               24
Atomic numbers                             I   N=          13
           1           6           7           1           1           6
           1           1           1           6           8           8
           1
Current cartesian coordinates              R   N=          39
  1.31673630E+00 -9.13156654E-01  2.78069835E+00  1.29317795E+00 -2.70140178E-01
  7.66285703E-01  2.92221650E+00  2.00224164E+00  6.52042365E-01  2.16553724E+00
  3.38525854E+00  1.68567694E+00  3.11680278E+00  2.58164412E+00 -1.13296424E+00
  2.35271873E+00 -2.35339008E+00 -9.18464800E-01  1.23616301E+00 -4.09285422E+00
 -7.39586103E-01  4.30774805E+00 -2.81339588E+00 -3.95458821E-01  2.35643768E+00
 -1.81656022E+00 -2.92440291E+00 -1.43556499E+00  2.63251480E-01  7.53904423E-04
 -2.25785729E+00  1.98594424E+00 -1.28689907E+00 -3.16810584E+00 -1.39198439E+00
  8.83074292E-01 -4.80922580E+00 -9.36633284E-01  3.00889618E-01
Nuclear charges                            R   N=          13
  1.00000000E+00  6.00000000E+00  7.00000000E+00  1.00000000E+00  1.00000000E+00
  6.00000000E+00  1.00000000E+00  1.00000000E+00  1.00000000E+00  6.00000000E+00
  8.00000000E+00  8.00000000E+00  1.00000000E+00
Number of basis functions                  I               68
Number of contracted shells                I               32
Number of primitive shells                 I               88
Highest angular momentum                   I                1
Largest degree of contraction              I                6
Shell types                                I   N=          32
           0           0           0          -1          -1           0
          -1          -1           0           0           0           0
           0          -1          -1           0           0           0
           0           0           0           0          -1          -1
           0          -1          -1           0          -1          -1
           0           0
Number of primitives per shell             I   N=          32
           3           1           6           3           1           6
           3           1           3           1           3           1
           6           3           1           3           1           3
           1           3           1           6           3           1
           6           3           1           6           3           1
           3           1
Shell to atom map                          I   N=          32
           1           1           2           2           2           3
           3           3           4           4           5           5
           6           6           6           7           7           8
           8           9           9          10          10          10
          11          11          11          12          12          12
          13          13
Primitive exponents                        R   N=          88
  1.87311370E+01  2.82539370E+00  6.40121700E-01  1.61277800E-01  3.04752490E+03
  4.57369510E+02  1.03948690E+02  2.92101550E+01  9.28666300E+00  3.16392700E+00
  7.86827240E+00  1.88128850E+00  5.44249300E-01  1.68714400E-01  4.17351100E+03
  6.27457900E+02  1.42902100E+02  4.02343300E+01  1.28202100E+01  4.39043700E+00
  1.16263580E+01  2.71628000E+00  7.72218000E-01  2.12031300E-01  1.87311370E+01
  2.82539370E+00  6.40121700E-01  1.61277800E-01  1.87311370E+01  2.82539370E+00
  6.40121700E-01  1.61277800E-01  3.04752490E+03  4.57369510E+02  1.03948690E+02
  2.92101550E+01  9.28666300E+00  3.16392700E+00  7.86827240E+00  1.88128850E+00
  5.44249300E-01  1.68714400E-01  1.87311370E+01  2.82539370E+00  6.40121700E-01
  1.61277800E-01  1.87311370E+01  2.82539370E+00  6.40121700E-01  1.61277800E-01
  1.87311370E+01  2.82539370E+00  6.40121700E-01  1.61277800E-01  3.04752490E+03
  4.57369510E+02  1.03948690E+02  2.92101550E+01  9.28666300E+00  3.16392700E+00
  7.86827240E+00  1.88128850E+00  5.44249300E-01  1.68714400E-01  5.48467170E+03
  8.25234950E+02  1.88046960E+02  5.29645000E+01  1.68975700E+01  5.79963530E+00
  1.55396160E+01  3.59993360E+00  1.01376180E+00  2.70005800E-01  5.48467170E+03
  8.25234950E+02  1.88046960E+02  5.29645000E+01  1.68975700E+01  5.79963530E+00
  1.55396160E+01  3.59993360E+00  1.01376180E+00  2.70005800E-01  1.87311370E+01
  2.82539370E+00  6.40121700E-01  1.61277800E-01
Contraction coefficients                   R   N=          88
  3.34945995E-02  2.34726947E-01  8.13757318E-01  1.00000000E+00  1.83470016E-03
  1.40373012E-02  6.88426061E-02  2.32184421E-01  4.67941342E-01  3.62312032E-01
 -1.19332409E-01 -1.60854212E-01  1.14345648E+00  1.00000000E+00  1.83479944E-03
  1.39949958E-02  6.85869792E-02  2.32240930E-01  4.69069858E-01  3.60454891E-01
 -1.14961023E-01 -1.69118034E-01  1.14585223E+00  1.00000000E+00  3.34945995E-02
  2.34726947E-01  8.13757318E-01  1.00000000E+00  3.34945995E-02  2.34726947E-01
  8.13757318E-01  1.00000000E+00  1.83470016E-03  1.40373012E-02  6.88426061E-02
  2.32184421E-01  4.67941342E-01  3.62312032E-01 -1.19332409E-01 -1.60854212E-01
  1.14345648E+00  1.00000000E+00  3.34945995E-02  2.34726947E-01  8.13757318E-01
  1.00000000E+00  3.34945995E-02  2.34726947E-01  8.13757318E-01  1.00000000E+00
  3.34945995E-02  2.34726947E-01  8.13757318E-01  1.00000000E+00  1.83470016E-03
  1.40373012E-02  6.88426061E-02  2.32184421E-01  4.67941342E-01  3.62312032E-01
 -1.19332409E-01 -1.60854212E-01  1.14345648E+00  1.00000000E+00  1.83109981E-03
  1.39500985E-02  6.84450927E-02  2.32714275E-01  4.70192950E-01  3.58520862E-01
 -1.10777504E-01 -1.48026305E-01  1.13076704E+00  1.00000000E+00  1.83109981E-03
  1.39500985E-02  6.84450927E-02  2.32714275E-01  4.70192950E-01  3.58520862E-01
 -1.10777504E-01 -1.48026305E-01  1.13076704E+00  1.00000000E+00  3.34945995E-02
  2.34726947E-01  8.13757318E-01  1.00000000E+00
P(S=P) Contraction coefficients            R   N=          88
  0.00000000E+00  0.00000000E+00  0.00000000E+00  0.00000000E+00  0.00000000E+00
  0.00000000E+00  0.00000000E+00  0.00000000E+00  0.00000000E+00  0.00000000E+00
  6.89990956E-02  3.16423980E-01  7.44308252E-01  1.00000000E+00  0.00000000E+00
  0.00000000E+00  0.00000000E+00  0.00000000E+00  0.00000000E+00  0.00000000E+00
  6.75800232E-02  3.23907111E-01  7.40895255E-01  1.00000000E+00  0.00000000E+00
  0.00000000E+00  0.00000000E+00  0.00000000E+00  0.00000000E+00  0.00000000E+00
  0.00000000E+00  0.00000000E+00  0.00000000E+00  0.00000000E+00  0.00000000E+00
  0.00000000E+00  0.00000000E+00  0.00000000E+00  6.89990956E-02  3.16423980E-01
  7.44308252E-01  1.00000000E+00  0.00000000E+00  0.00000000E+00  0.00000000E+00
  0.00000000E+00  0.00000000E+00  0.00000000E+00  0.00000000E+00  0.00000000E+00
  0.00000000E+00  0.00000000E+00  0.00000000E+00  0.00000000E+00  0.00000000E+00
  0.00000000E+00  0.00000000E+00  0.00000000E+00  0.00000000E+00  0.00000000E+00
  6.89990956E-02  3.16423980E-01  7.44308252E-01  1.00000000E+00  0.00000000E+00
  0.00000000E+00  0.00000000E+00  0.00000000E+00  0.00000000E+00  0.00000000E+00
  7.08742995E-02  3.39752798E-01  7.27158595E-01  1.00000000E+00  0.00000000E+00
  0.00000000E+00  0.00000000E+00  0.00000000E+00  0.00000000E+00  0.00000000E+00
  7.08742995E-02  3.39752798E-01  7.27158595E-01  1.00000000E+00  0.00000000E+00
  0.00000000E+00  0.00000000E+00  0.00000000E+00
Coordinates of each shell                  R   N=          96
  1.31673630E+00 -9.13156654E-01  2.78069835E+00  1.31673630E+00 -9.13156654E-01
  2.78069835E+00  1.29317795E+00 -2.70140178E-01  7.66285703E-01  1.29317795E+00
 -2.70140178E-01  7.66285703E-01  1.29317795E+00 -2.70140178E-01  7.66285703E-01
  2.92221650E+00  2.00224164E+00  6.52042365E-01  2.92221650E+00  2.00224164E+00
  6.52042365E-01  2.92221650E+00  2.00224164E+00  6.52042365E-01  2.16553724E+00
  3.38525854E+00  1.68567694E+00  2.16553724E+00  3.38525854E+00  1.68567694E+00
  3.11680278E+00  2.58164412E+00 -1.13296424E+00  3.11680278E+00  2.58164412E+00
 -1.13296424E+00  2.35271873E+00 -2.35339008E+00 -9.18464800E-01  2.35271873E+00
 -2.35339008E+00 -9.18464800E-01  2.35271873E+00 -2.35339008E+00 -9.18464800E-01
  1.23616301E+00 -4.09285422E+00 -7.39586103E-01  1.23616301E+00 -4.09285422E+00
 -7.39586103E-01  4.30774805E+00 -2.81339588E+00 -3.95458821E-01  4.30774805E+00
 -2.81339588E+00 -3.95458821E-01  2.35643768E+00 -1.81656022E+00 -2.92440291E+00
  2.35643768E+00 -1.81656022E+00 -2.92440291E+00 -1.43556499E+00  2.63251480E-01
  7.53904423E-04 -1.43556499E+00  2.63251480E-01  7.53904423E-04 -1.43556499E+00
  2.63251480E-01  7.53904423E-04 -2.25785729E+00  1.98594424E+00 -1.28689907E+00
 -2.25785729E+00  1.98594424E+00 -1.28689907E+00 -2.25785729E+00  1.98594424E+00
 -1.28689907E+00 -3.16810584E+00 -1.39198439E+00  8.83074292E-01 -3.16810584E+00
 -1.39198439E+00  8.83074292E-01 -3.16810584E+00 -1.39198439E+00  8.83074292E-01
 -4.80922580E+00 -9.36633284E-01  3.00889618E-01 -4.80922580E+00 -9.36633284E-01
  3.00889618E-01
Current cartesian coordinates              R   N=          39
  1.31673630E+00 -9.13156654E-01  2.78069835E+00  1.29317795E+00 -2.70140178E-01
  7.66285703E-01  2.92221650E+00  2.00224164E+00  6.52042365E-01  2.16553724E+00
  3.38525854E+00  1.68567694E+00  3.11680278E+00  2.58164412E+00 -1.13296424E+00
  2.35271873E+00 -2.35339008E+00 -9.18464800E-01  1.23616301E+00 -4.09285422E+00
 -7.39586103E-01  4.30774805E+00 -2.81339588E+00 -3.95458821E-01  2.35643768E+00
 -1.81656022E+00 -2.92440291E+00 -1.43556499E+00  2.63251480E-01  7.53904423E-04
 -2.25785729E+00  1.98594424E+00 -1.28689907E+00 -3.16810584E+00 -1.39198439E+00
  8.83074292E-01 -4.80922580E+00 -9.36633284E-01  3.00889618E-01
Overlap Matrix                             R   N=        2346
  1.00000000E+00  6.58292049E-01  1.00000000E+00  2.87691510E-02  8.89701431E-02
  1.00000000E+00  2.55755720E-01  4.63009838E-01  2.19058872E-01  1.00000000E+00
  3.91006016E-03  2.95215255E-03  2.46641646E-18 -3.33707286E-16  1.00000000E+00
 -1.06723678E-01 -8.05779360E-02  2.80511806E-17 -2.56419901E-18  0.00000000E+00
  1.00000000E+00  3.34339062E-01  2.52430877E-01 -5.95494745E-17 -7.03816877E-17
  2.97313065E-32  0.00000000E+00  1.00000000E+00  3.65457744E-01  6.91345695E-01
  1.84261053E-01  8.12273068E-01  0.00000000E+00  0.00000000E+00  0.00000000E+00
  1.00000000E+00  5.70872933E-03  6.53908540E-03 -2.83280808E-17  0.00000000E+00
  5.69754058E-01  0.00000000E+00  0.00000000E+00  0.00000000E+00  1.00000000E+00
 -1.55817702E-01 -1.78481970E-01  0.00000000E+00  0.00000000E+00  0.00000000E+00
  5.69754058E-01  0.00000000E+00  0.00000000E+00  0.00000000E+00  1.00000000E+00
  4.88138579E-01  5.59140164E-01 -5.94786702E-18  0.00000000E+00  0.00000000E+00
  0.00000000E+00  5.69754058E-01  0.00000000E+00  0.00000000E+00  0.00000000E+00
  1.00000000E+00  3.52642724E-05  1.21704221E-02  7.17296352E-08  7.33137186E-03
  1.05371770E-02  1.46985407E-02 -7.38964883E-04  4.03911448E-02  5.26379306E-02
  7.34258106E-02 -3.69146140E-03  1.00000000E+00  3.91291196E-03  8.79149720E-02
  3.20521470E-03  9.85343164E-02  9.66368269E-02  1.34800842E-01 -6.77707335E-03
  2.41099893E-01  2.61465625E-01  3.64724168E-01 -1.83364021E-02  2.22215399E-01
  1.00000000E+00 -3.32903098E-03 -3.24749837E-02 -4.99392899E-03 -8.34751552E-02
 -4.01563083E-02 -1.25206674E-01  6.29472935E-03 -9.61972215E-02  3.65139064E-02
 -1.49607804E-01  7.52148908E-03 -3.09704787E-16  0.00000000E+00  1.00000000E+00
 -6.04520141E-03 -5.89714600E-02 -6.96614171E-03 -1.16441335E-01 -1.25206674E-01
 -1.25050957E-01  8.78065683E-03 -1.34187626E-01 -1.49607804E-01 -6.49255896E-02
  1.04918910E-02  1.29407717E-16 -3.37071346E-16  0.00000000E+00  1.00000000E+00
  4.41385803E-03  4.30575650E-02  3.50220761E-04  5.85405448E-03  6.29472935E-03
  8.78065683E-03  4.91611499E-02  6.74624412E-03  7.52148908E-03  1.04918910E-02
  1.43238159E-01  4.96222116E-17 -1.81107007E-16  0.00000000E+00  0.00000000E+00
  1.00000000E+00  5.85172927E-02  2.36041725E-01  4.41474467E-02  2.73528628E-01
  1.44989704E-01  2.02249336E-01 -1.01680269E-02  4.74504459E-01  3.53624789E-01
  4.93279018E-01 -2.47994601E-02  1.71868983E-01  7.75506703E-01  4.03181422E-16
  0.00000000E+00 -4.42331623E-17  1.00000000E+00 -6.60761745E-02 -1.50775138E-01
 -6.32663542E-02 -2.89122490E-01  3.24701633E-02 -2.24328919E-01  1.12780716E-02
 -3.15441470E-01  2.36340651E-01 -3.27922438E-01  1.64862058E-02 -1.92014767E-17
  3.55821547E-16  5.19295399E-01  0.00000000E+00  0.00000000E+00  4.08978243E-16
  1.00000000E+00 -1.19988004E-01 -2.73793209E-01 -8.82516331E-02 -4.03303339E-01
 -2.24328919E-01 -1.19632949E-01  1.57320308E-02 -4.40016266E-01 -3.27922438E-01
  1.39973906E-02  2.29969721E-02  3.94227857E-17  0.00000000E+00  0.00000000E+00
  5.19295399E-01  0.00000000E+00  0.00000000E+00  0.00000000E+00  1.00000000E+00
  8.76083327E-02  1.99908038E-01  4.43682534E-03  2.02759588E-02  1.12780716E-02
  1.57320308E-02  1.92497486E-01  2.21216906E-02  1.64862058E-02  2.29969721E-02
  4.70267467E-01  5.95439493E-18  6.45253169E-18  0.00000000E+00  0.00000000E+00
  5.19295399E-01  0.00000000E+00  0.00000000E+00  0.00000000E+00  1.00000000E+00
  9.74420112E-04  4.55020314E-02  8.55607289E-05  1.14313363E-02  5.36423743E-03
  2.24774664E-02  5.65344229E-03  8.77920343E-02  5.05639504E-02  2.11875316E-01
  5.32900304E-02  3.70591891E-02  2.72196220E-01 -1.35368075E-01  2.47418353E-01
  1.84914706E-01  4.15392802E-01 -2.22982788E-01  4.07555726E-01  3.04597643E-01
  1.00000000E+00  4.55020314E-02  1.93069781E-01  1.73544543E-02  1.28140411E-01
  2.88393734E-02  1.20844026E-01  3.03942052E-02  2.90950039E-01  1.01903898E-01
  4.27002249E-01  1.07397895E-01  8.09910023E-02  4.30872284E-01 -7.81888891E-02
  1.42909369E-01  1.06807129E-01  7.12112437E-01 -2.14385990E-01  3.91842969E-01
  2.92854295E-01  6.58292049E-01  1.00000000E+00  3.50104051E-05  1.17668683E-02
  8.11188688E-05  1.11078615E-02  1.08897633E-02  1.70294106E-02 -1.13413581E-02
  8.66425717E-02  1.04313834E-01  1.63125961E-01 -1.08639694E-01  3.69261795E-02
  2.71598450E-01  3.47248644E-02  1.03397180E-01 -3.18543076E-01  4.14977795E-01
  5.72842643E-02  1.70570325E-01 -5.25488179E-01  3.35770432E-02  1.89286750E-01
  1.00000000E+00  1.17668683E-02  8.36336368E-02  1.70938250E-02  1.26621493E-01
  5.95496167E-02  9.31236836E-02 -6.20191193E-02  2.88627452E-01  2.11324632E-01
  3.30469434E-01 -2.20088193E-01  8.09130962E-02  4.30525311E-01  2.00902483E-02
  5.98209688E-02 -1.84294730E-01  7.11713341E-01  5.51002183E-02  1.64067083E-01
 -5.05453177E-01  1.89286750E-01  4.65007443E-01  6.58292049E-01  1.00000000E+00
  3.08402676E-05  1.29853026E-02  2.60937967E-07  8.02870911E-03  7.26563239E-03
 -1.42855549E-02 -1.15529086E-02  4.77466262E-02  4.00650208E-02 -7.87751186E-02
 -6.37064331E-02  5.34772904E-19  4.41609476E-07 -2.33117436E-07 -1.78292831E-06
 -6.42869249E-07  2.63232584E-03 -1.31686028E-03 -1.00716082E-02 -3.63151292E-03
  1.29512712E-10  3.67267430E-04  3.65768000E-07  3.65073201E-03  1.00000000E+00
  6.59539199E-03  1.01950335E-01  8.02870911E-03  1.26791386E-01  7.10456630E-02
 -1.39688696E-01 -1.12968013E-01  2.84887184E-01  1.85981434E-01 -3.65673328E-01
 -2.95724638E-01  7.24227849E-06  1.22268952E-03 -3.32685585E-04 -2.54444523E-03
 -9.17448885E-04  3.37432825E-02 -1.25916098E-02 -9.63031250E-02 -3.47239522E-02
  7.74136753E-06  6.05721087E-03  5.96645434E-04  3.74183853E-02  2.19058872E-01
  1.00000000E+00 -3.63888262E-03 -2.70514033E-02 -7.26563239E-03 -7.10456630E-02
  2.29020175E-02  8.70534767E-02  7.04012458E-02 -8.29539536E-02  1.34282248E-01
  1.10748581E-01  8.95637763E-02  3.59793784E-06  3.92631236E-04  4.09577639E-04
 -8.24998457E-04 -2.97469132E-04  5.77704199E-03  1.98131034E-02 -1.69548809E-02
 -6.11340987E-03 -7.52507575E-07 -2.71687152E-04  2.38078374E-04  7.11973334E-03
 -3.44863263E-16 -4.77463947E-17  1.00000000E+00  5.05881200E-03  3.76071387E-02
  1.42855549E-02  1.39688696E-01  8.70534767E-02 -1.03985559E-01 -1.38421655E-01
  1.63102562E-01  1.10748581E-01 -2.71428853E-02 -1.76098675E-01  2.75177411E-05
  3.00292144E-03 -8.24998457E-04 -5.79230558E-03 -2.27510283E-03  4.41839611E-02
 -1.69548809E-02 -1.07644337E-01 -4.67565693E-02  2.30705316E-05  8.32944044E-03
  1.53769067E-03  4.59846368E-02 -3.29773495E-17  0.00000000E+00  0.00000000E+00
  1.00000000E+00  1.29932902E-02  9.65919405E-02  1.15529086E-02  1.12968013E-01
  7.04012458E-02 -1.38421655E-01 -4.47659295E-02  1.31903101E-01  8.95637763E-02
 -1.76098675E-01  4.81957481E-02  9.92205318E-06  1.08276134E-03 -2.97469132E-04
 -2.27510283E-03 -3.02886296E-04  1.59313808E-02 -6.11340987E-03 -4.67565693E-02
  5.17096548E-03  1.04691781E-05  3.77981733E-03 -6.68351565E-05 -1.99870524E-03
  2.20425618E-17 -3.47878409E-17 -2.89300341E-32  0.00000000E+00  1.00000000E+00
  6.81991089E-02  2.49516926E-01  4.77466262E-02  2.84887184E-01  8.29539536E-02
 -1.63102562E-01 -1.31903101E-01  4.96464078E-01  2.16063588E-01 -4.24820315E-01
 -3.43557553E-01  4.09647772E-03  3.57607847E-02 -4.76209321E-03 -3.64214318E-02
 -1.31324509E-02  1.28164692E-01 -2.97856824E-02 -2.27806797E-01 -8.21401418E-02
  3.08845026E-03  3.77072025E-02  2.26274386E-02  1.27390482E-01  1.84261053E-01
  8.12273068E-01  0.00000000E+00 -3.55824196E-16  6.59784459E-18  1.00000000E+00
 -4.66156379E-02 -1.03783758E-01 -4.00650208E-02 -1.85981434E-01  1.34282248E-01
  1.10748581E-01  8.95637763E-02 -2.16063588E-01  4.02432151E-01  1.84883873E-01
  1.49517923E-01  1.86556265E-03  1.36060823E-02  1.85080522E-02 -1.41468590E-02
 -5.10092332E-03  3.33911569E-02  1.19572395E-01 -5.93512330E-02 -2.14002337E-02
 -3.79028547E-04 -2.83376747E-03  1.13772978E-02  3.90800493E-02 -1.82408191E-17
  0.00000000E+00  5.69754058E-01  0.00000000E+00  0.00000000E+00  0.00000000E+00
  1.00000000E+00  6.48055386E-02  1.44281246E-01  7.87751186E-02  3.65673328E-01
  1.10748581E-01 -2.71428853E-02 -1.76098675E-01  4.24820315E-01  1.84883873E-01
  1.32948754E-01 -2.93979433E-01  1.42681926E-02  1.04062012E-01 -1.41468590E-02
 -8.78402285E-02 -3.90128716E-02  2.55382180E-01 -5.93512330E-02 -3.26597429E-01
 -1.63673225E-01  1.16203349E-02  8.68782242E-02  7.34832169E-02  2.52408593E-01
  2.32569778E-17 -3.33611800E-16  0.00000000E+00  5.69754058E-01  2.40701266E-33
  3.64818029E-16  0.00000000E+00  1.00000000E+00  1.66449588E-01  3.70578726E-01
  6.37064331E-02  2.95724638E-01  8.95637763E-02 -1.76098675E-01  4.81957481E-02
  3.43557553E-01  1.49517923E-01 -2.93979433E-01  2.58719199E-01  5.14467250E-03
  3.75215687E-02 -5.10092332E-03 -3.90128716E-02  6.29090593E-03  9.20829789E-02
 -2.14002337E-02 -1.63673225E-01  6.83170106E-02  5.27319256E-03  3.94244751E-02
 -3.19392085E-03 -1.09708462E-02  4.70406797E-18 -1.67091160E-18  0.00000000E+00
  2.40701266E-33  5.69754058E-01  0.00000000E+00  0.00000000E+00  0.00000000E+00
  1.00000000E+00  4.94311565E-04  3.45336057E-02  2.99640744E-05  6.49361759E-03
 -1.97127452E-04 -1.32169187E-02 -5.20650644E-03  6.77138099E-02 -2.54717308E-03
 -1.70781792E-01 -6.72756275E-02  1.16340227E-11  3.92072122E-07 -3.40581712E-07
 -1.23120541E-06 -2.81108047E-07  8.45391784E-04 -9.92323931E-04 -3.58725835E-03
 -8.19040579E-04  1.28861639E-09  1.87363835E-04  1.30479198E-07  1.21542277E-03
  3.16195252E-02  2.68743367E-01 -1.96082670E-01 -3.05474025E-01  3.14135799E-02
  3.73887470E-01 -2.76829300E-01 -4.31267897E-01  4.43496579E-02  1.00000000E+00
  3.45336057E-02  1.62816588E-01  1.28792073E-02  1.01292832E-01 -1.47886663E-03
 -9.91544296E-02 -3.90596467E-02  2.48434950E-01 -5.68693652E-03 -3.81295335E-01
 -1.50202680E-01  1.94471695E-04  2.69701469E-03 -9.82395216E-04 -3.55136597E-03
 -8.10845654E-04  2.11770544E-02 -1.42060357E-02 -5.13549240E-02 -1.17253241E-02
  1.87363835E-04  6.38717574E-03  1.21542277E-03  2.04441341E-02  9.13211809E-02
  4.72570926E-01 -1.42931947E-01 -2.22671372E-01  2.28985261E-02  7.00957720E-01
 -3.14231135E-01 -4.89535611E-01  5.03416486E-02  6.58292049E-01  1.00000000E+00
  4.73253737E-04  3.39277561E-02  2.96156341E-05  6.45276263E-03  1.03562161E-02
 -8.73706860E-03 -3.99104250E-03  6.75178412E-02  1.34286756E-01 -1.13291629E-01
 -5.17509623E-02  8.38260059E-08  9.61080449E-05  6.88913185E-05 -2.39442846E-04
 -5.20837926E-05  1.05674989E-02  1.02439709E-02 -3.56045667E-02 -7.74473281E-03
  1.73869250E-07  1.36543359E-03  3.18230362E-05  1.13189754E-02  3.15686776E-02
  2.68516919E-01  3.42999752E-01 -8.07056309E-02  9.17586857E-02  3.73742357E-01
  4.84524529E-01 -1.14005499E-01  1.29619143E-01  1.92028984E-02  1.51608730E-01
  1.00000000E+00  3.39277561E-02  1.61045121E-01  1.28363964E-02  1.01027193E-01
  7.79812030E-02 -6.57891947E-02 -3.00521244E-02  2.47997171E-01  3.00157432E-01
 -2.53229176E-01 -1.15673626E-01  2.30023440E-03  2.16546984E-02  6.70418433E-03
 -2.33014698E-02 -5.06855368E-03  8.93993892E-02  4.92818461E-02 -1.71286974E-01
 -3.72584748E-02  1.36543359E-03  2.19776651E-02  1.13189754E-02  8.16472186E-02
  9.12806453E-02  4.72406540E-01  2.50175418E-01 -5.88646634E-02  6.69264844E-02
  7.00792987E-01  5.50072596E-01 -1.29428537E-01  1.47154446E-01  1.51608730E-01
  4.05613278E-01  6.58292049E-01  1.00000000E+00  1.07953038E-05  7.29427937E-03
  2.60066111E-05  6.01573118E-03  3.40177174E-03 -4.94758508E-03 -1.18079147E-02
  6.53780834E-02  4.58590130E-02 -6.66979992E-02 -1.59181555E-01  3.60603317E-08
  5.71248848E-05 -1.67040770E-05 -1.12746461E-04 -1.05591116E-04  8.31720101E-03
 -3.29037192E-03 -2.22088171E-02 -2.07993559E-02  1.26057387E-07  1.19855546E-03
  4.04849367E-04  3.18410900E-02  3.14848838E-02  2.68143348E-01  6.51432938E-04
  9.40343388E-02 -3.51372148E-01  3.73502822E-01  9.21092052E-04  1.32959629E-01
 -4.96821812E-01  1.90779967E-02  1.51214553E-01  1.91602144E-02  1.51474202E-01
  1.00000000E+00  7.29427937E-03  6.21856580E-02  1.23701451E-02  9.81216791E-02
  2.66894222E-02 -3.88174744E-02 -9.26418484E-02  2.43184079E-01  1.03812940E-01
 -1.50987013E-01 -3.60345855E-01  1.82087100E-03  1.77862217E-02 -2.24039553E-03
 -1.51218572E-02 -1.41621631E-02  7.80150689E-02 -1.75614828E-02 -1.18533639E-01
 -1.11011016E-01  1.19855546E-03  2.02673214E-02  3.18410900E-02  1.54848586E-01
  9.12137393E-02  4.72135179E-01  4.75610109E-04  6.86543150E-02 -2.56536223E-01
  7.00521013E-01  1.04596719E-03  1.50985355E-01 -5.64177398E-01  1.51214553E-01
  4.04963485E-01  1.51474202E-01  4.05391584E-01  6.58292049E-01  1.00000000E+00
  3.33702613E-05  1.32799740E-02  2.54549877E-07  7.96831013E-03 -1.85703368E-02
  3.62997284E-03 -5.20979208E-03  4.76253017E-02 -1.02921238E-01  2.01181756E-02
 -2.88739108E-02  1.54236425E-19  2.88501536E-07 -1.16436848E-06 -4.64645906E-07
 -1.74019684E-07  2.29588749E-03 -8.78808266E-03 -3.50691958E-03 -1.31341529E-03
  2.68767039E-07  3.34117558E-03  9.99238899E-08  2.51308784E-03  9.41620820E-17
  1.11392089E-05 -3.53868685E-05  2.44424013E-05  8.58654572E-06  5.11220177E-03
 -1.53261637E-02  1.05860806E-02  3.71885988E-03  1.47628629E-07  2.81204885E-03
  2.80016145E-11  2.35436510E-04  1.06780123E-07  2.56159273E-03  1.00000000E+00
  6.88199195E-03  1.03770506E-01  7.96831013E-03  1.26277455E-01 -1.82186975E-01
  3.56123735E-02 -5.11114186E-02  2.84323835E-01 -4.78033841E-01  9.34420239E-02
 -1.34109410E-01  5.18489331E-06  9.85915329E-04 -2.04977015E-03 -8.17968987E-04
 -3.06346623E-04  3.04704466E-02 -8.70340670E-02 -3.47312930E-02 -1.30076011E-02
  5.04546200E-04  3.48850899E-02  2.94352115E-04  2.78444183E-02  1.11392089E-05
  3.21934733E-03 -5.92611379E-03  4.09328255E-03  1.43795846E-03  4.97749533E-02
 -1.16887209E-01  8.07362781E-02  2.83624238E-02  3.64104015E-04  3.04356310E-02
  3.33779904E-06  4.25409649E-03  3.05193321E-04  2.82690573E-02  2.19058872E-01
  1.00000000E+00  1.00942200E-02  7.31909882E-02  1.85703368E-02  1.82186975E-01
 -2.25402808E-01  5.71309609E-02 -8.19952217E-02  2.13200352E-01 -1.82609564E-01
  7.28769831E-02 -1.04594152E-01  1.97018895E-05  2.42197785E-03 -4.66294070E-03
 -2.02693547E-03 -7.59130048E-04  3.98044295E-02 -9.69957028E-02 -4.66223751E-02
 -1.74610620E-02  9.48302249E-04  3.12283381E-02  6.98324697E-04  3.13375545E-02
  3.53868685E-05  5.92611379E-03 -9.67336050E-03  7.65057946E-03  2.68762670E-03
  4.88850508E-02 -8.65446388E-02  8.14780476E-02  2.86230053E-02  5.07229978E-04
  2.01461521E-02  9.95351701E-06  5.81991141E-03  6.03162482E-04  2.65110072E-02
  6.79055861E-17  1.36164013E-17  1.00000000E+00 -4.31454310E-03 -3.12838113E-02
 -3.62997284E-03 -3.56123735E-02  5.71309609E-02  5.57022005E-02  1.60277345E-02
 -4.16746068E-02  7.28769831E-02  1.75971573E-01  2.04451827E-02  7.86211791E-06
  9.66499958E-04 -2.02693547E-03 -3.92446136E-04 -3.02933885E-04  1.58841170E-02
 -4.66223751E-02  1.23169648E-03 -6.96790671E-03  8.22138927E-04  2.70736807E-02
  3.55637092E-04  1.59593336E-02 -2.44424013E-05 -4.09328255E-03  7.65057946E-03
 -3.88151918E-03 -1.85639626E-03 -3.37658595E-02  8.14780476E-02 -2.48620009E-02
 -1.97704688E-02 -8.27010610E-04 -3.28471941E-02 -5.33202032E-06 -3.11768050E-03
 -3.30818434E-04 -1.45405759E-02 -3.11485666E-17  3.05106957E-18 -5.46316810E-33
  1.00000000E+00  1.01956028E-02  7.39260932E-02  5.20979208E-03  5.11114186E-02
 -8.19952217E-02  1.60277345E-02  4.38664313E-02  5.98120279E-02 -1.04594152E-01
  2.04451827E-02  1.60873715E-01  2.94452884E-06  3.61974602E-04 -7.59130048E-04
 -3.02933885E-04  3.02955455E-04  5.94893655E-03 -1.74610620E-02 -6.96790671E-03
  1.72269141E-02  4.43702013E-04  1.46114558E-02 -1.73910241E-04 -7.80428028E-03
 -8.58654572E-06 -1.43795846E-03  2.68762670E-03 -1.85639626E-03  7.50738786E-04
 -1.18618499E-02  2.86230053E-02 -1.97704688E-02  2.44711689E-02 -1.40554220E-04
 -5.58253027E-03 -6.86661179E-07 -4.01497002E-04 -4.65280485E-04 -2.04506325E-02
 -6.26193991E-20  4.06211343E-20 -7.06299661E-36  1.76574915E-36  1.00000000E+00
  6.95443514E-02  2.52500401E-01  4.76253017E-02  2.84323835E-01 -2.13200352E-01
  4.16746068E-02 -5.98120279E-02  4.95809396E-01 -5.55716707E-01  1.08626815E-01
 -1.55902853E-01  3.66592315E-03  3.25920538E-02 -3.31467085E-02 -1.32273268E-02
 -4.95391262E-03  1.20275686E-01 -2.13889971E-01 -8.53536494E-02 -3.19667404E-02
  2.09515361E-02  1.21547325E-01  1.63615168E-02  1.04519028E-01  5.11220177E-03
  4.97749533E-02 -4.88850508E-02  3.37658595E-02  1.18618499E-02  1.55754417E-01
 -2.42358884E-01  1.67402015E-01  5.88078496E-02  1.80385091E-02  1.10934214E-01
  2.10163284E-03  2.97863586E-02  1.66352943E-02  1.05583336E-01  1.84261053E-01
  8.12273068E-01  0.00000000E+00 -3.29892230E-18  0.00000000E+00  1.00000000E+00
  1.26293323E-01  2.79019806E-01  1.02921238E-01  4.78033841E-01 -1.82609564E-01
  7.28769831E-02 -1.04594152E-01  5.55716707E-01 -1.27053061E-01  1.21751900E-01
 -1.74740174E-01  1.27746095E-02  9.49015308E-02 -7.99855423E-02 -3.93083147E-02
 -1.47217922E-02  2.39780761E-01 -3.06914770E-01 -1.70160434E-01 -6.37286686E-02
  4.96411588E-02  1.75734829E-01  4.89808383E-02  1.91033570E-01  1.53261637E-02
  1.16887209E-01 -8.65446388E-02  8.14780476E-02  2.86230053E-02  2.42358884E-01
 -2.21363806E-01  2.60482922E-01  9.15069064E-02  3.16990310E-02  1.18996651E-01
  7.90928966E-03  6.86842071E-02  4.14838700E-02  1.60746306E-01 -1.98737706E-20
  0.00000000E+00  5.69754058E-01  0.00000000E+00  0.00000000E+00  0.00000000E+00
  1.00000000E+00 -5.39811876E-02 -1.19260624E-01 -2.01181756E-02 -9.34420239E-02
  7.28769831E-02  1.75971573E-01  2.04451827E-02 -1.08626815E-01  1.21751900E-01
  4.72010361E-01  3.41567357E-02  5.09775910E-03  3.78708359E-02 -3.93083147E-02
  2.83206439E-03 -5.87479015E-03  9.56854728E-02 -1.70160434E-01  5.15915667E-02
 -2.54311804E-02  4.30368367E-02  1.52354847E-01  2.49445609E-02  9.72880146E-02
 -1.05860806E-02 -8.07362781E-02  8.14780476E-02 -2.48620009E-02 -1.97704688E-02
 -1.67402015E-01  2.60482922E-01 -2.41662258E-02 -6.32056076E-02 -5.16835283E-02
 -1.94017501E-01 -4.23694390E-03 -3.67935864E-02 -2.27527893E-02 -8.81650348E-02
 -2.90712223E-18  8.35455798E-19  0.00000000E+00  5.69754058E-01  0.00000000E+00
  0.00000000E+00  0.00000000E+00  1.00000000E+00  1.27561769E-01  2.81822184E-01
  2.88739108E-02  1.34109410E-01 -1.04594152E-01  2.04451827E-02  1.60873715E-01
  1.55902853E-01 -1.74740174E-01  3.41567357E-02  4.46787131E-01  1.90921821E-03
  1.41834261E-02 -1.47217922E-02 -5.87479015E-03  1.63179721E-02  3.58362260E-02
 -6.37286686E-02 -2.54311804E-02  1.09970256E-01  2.32266475E-02  8.22247311E-02
 -1.21981500E-02 -4.75748521E-02 -3.71885988E-03 -2.83624238E-02  2.86230053E-02
 -1.97704688E-02  2.44711689E-02 -5.88078496E-02  9.15069064E-02 -6.32056076E-02
  1.33550467E-01 -8.78385107E-03 -3.29741581E-02 -5.45636498E-04 -4.73830291E-03
 -3.20007224E-02 -1.23999953E-01 -5.80846389E-21  0.00000000E+00  0.00000000E+00
  0.00000000E+00  5.69754058E-01 -8.90669016E-20  0.00000000E+00  0.00000000E+00
  1.00000000E+00  5.61861539E-11  2.96600538E-04  3.98203692E-21  4.41423414E-06
 -1.40116034E-05  8.90201254E-06 -8.10141520E-06  3.19377560E-03 -9.12871700E-03
  5.79976114E-03 -5.27816299E-03  8.03894919E-35  2.11704663E-10 -1.11083261E-09
 -3.49486847E-12 -4.15793184E-10  2.52905718E-04 -1.17550600E-03 -3.69834196E-06
 -4.40000931E-04  4.12692225E-09  9.50905105E-04  7.82590455E-09  1.13072607E-03