
Running Job 1 of 1 input
qchem input_10038.0 /aimm/scratch/qchem10038/ 0
/home/epif/aimm/qcprog.exe_s input_10038.0 /aimm/scratch/qchem10038/
8388608
                  Welcome to Q-Chem
     A Quantum Leap Into The Future Of Chemistry


 Q-Chem 6.0, Q-Chem, Inc., Pleasanton, CA (2022)

 E. Epifanovsky,  A. T. B. Gilbert,  Xintian Feng,  Joonho Lee,  Yuezhi Mao,  
 N. Mardirossian,  P. Pokhilko,  A. White,  M. Wormit,  M. P. Coons,  
 A. L. Dempwolff,  Zhengting Gan,  D. Hait,  P. R. Horn,  L. D. Jacobson,  
 I. Kaliman,  J. Kussmann,  A. W. Lange,  Ka Un Lao,  D. S. Levine,  Jie Liu,  
 S. C. McKenzie,  A. F. Morrison,  K. Nanda,  F. Plasser,  D. R. Rehn,  
 M. L. Vidal,  Zhi-Qiang You,  Ying Zhu,  B. Alam,  B. Albrecht,  
 A. Aldossary,  E. Alguire,  J. H. Andersen,  V. Athavale,  D. Barton,  
 K. Begam,  A. Behn,  N. Bellonzi,  Y. A. Bernard,  E. J. Berquist,  
 H. Burton,  A. Carreras,  K. Carter-Fenk,  Romit Chakraborty,  
 Chandrima Chakravarty,  Junhan Chen,  A. D. Chien,  K. D. Closser,  
 V. Cofer-Shabica,  L. Cunha,  S. Dasgupta,  Jia Deng,  M. de Wergifosse,  
 M. Diedenhofen,  Hainam Do,  S. Ehlert,  Po-Tung Fang,  S. Fatehi,  
 Qingguo Feng,  T. Friedhoff,  B. Ganoe,  J. Gayvert,  Qinghui Ge,  
 G. Gidofalvi,  M. Goldey,  J. Gomes,  C. Gonzalez-Espinoza,  S. Gulania,  
 A. Gunina,  J. A. Gyamfi,  M. W. D. Hanson-Heine,  P. H. P. Harbach,  
 A. W. Hauser,  M. F. Herbst,  M. Hernandez Vera,  M. Hodecker,  
 Z. C. Holden,  S. Houck,  Xunkun Huang,  Kerwin Hui,  B. C. Huynh,  
 K. Ikeda,  M. Ivanov,  Hyunjun Ji,  Zuxin Jin,  Hanjie Jiang,  B. Kaduk,  
 S. Kaehler,  R. Kang,  K. Khistyaev,  Jaehoon Kim,  Yongbin Kim,  
 P. Klunzinger,  Z. Koczor-Benda,  Joong Hoon Koh,  D. Kosenkov,  
 Saikiran Kotaru,  L. Koulias,  T. Kowalczyk,  C. M. Krauter,  K. Kue,  
 A. Kunitsa,  T. Kus,  A. Landau,  K. V. Lawler,  D. Lefrancois,  S. Lehtola,  
 Rain Li,  Shaozhi Li,  Yi-Pei Li,  Jiashu Liang,  M. Liebenthal,  
 Hung-Hsuan Lin,  You-Sheng Lin,  Fenglai Liu,  Kuan-Yu Liu,  
 M. Loipersberger,  A. Luenser,  C. Malbon,  A. Manjanath,  P. Manohar,  
 E. Mansoor,  S. F. Manzer,  Shan-Ping Mao,  A. V. Marenich,  T. Markovich,  
 S. Mason,  F. Matz,  S. A. Maurer,  P. F. McLaughlin,  M. F. S. J. Menger,  
 J.-M. Mewes,  S. A. Mewes,  P. Morgante,  Mohammad Mostafanejad,  
 J. W. Mullinax,  K. J. Oosterbaan,  G. Paran,  V. Parravicini,  
 Alexander C. Paul,  Suranjan K. Paul,  F. Pavosevic,  Zheng Pei,  S. Prager,  
 E. I. Proynov,  E. Ramos,  B. Rana,  A. E. Rask,  A. Rettig,  R. M. Richard,  
 F. Rob,  E. Rossomme,  T. Scheele,  M. Scheurer,  M. Schneider,  
 P. E. Schneider,  N. Sergueev,  S. M. Sharada,  Hengyuan Shen,  
 W. Skomorowski,  D. W. Small,  C. J. Stein,  Yingli Su,  Yu-Chuan Su,  
 E. J. Sundstrom,  Zhen Tao,  J. Thirman,  Hung-Yi Tsai,  T. Tsuchimochi,  
 N. M. Tubman,  C. Utku,  S. P. Veccham,  O. Vydrov,  J. Wenzel,  
 Jonathan Wong,  J. Witte,  A. Yamada,  Chou-Hsun Yang,  Kun Yao,  
 S. Yeganeh,  S. R. Yost,  A. Zech,  F. Zeller,  Igor Ying Zhang,  
 Xing Zhang,  Yu Zhang,  D. Zuev,  A. Aspuru-Guzik,  A. T. Bell,  
 N. A. Besley,  K. B. Bravaya,  B. R. Brooks,  D. Casanova,  Jeng-Da Chai,  
 Hsing-Ta Chen,  S. Coriani,  C. J. Cramer,  A. E. DePrince, III,  
 R. A. DiStasio Jr.,  A. Dreuw,  B. D. Dunietz,  T. R. Furlani,  
 W. A. Goddard III,  S. Grimme,  S. Hammes-Schiffer,  T. Head-Gordon,  
 W. J. Hehre,  Chao-Ping Hsu,  T.-C. Jagau,  Yousung Jung,  A. Klamt,  
 Jing Kong,  D. S. Lambrecht,  Xiangyuan Li,  WanZhen Liang,  N. J. Mayhall,  
 C. W. McCurdy,  J. B. Neaton,  T. Neudecker,  C. Ochsenfeld,  
 J. A. Parkhill,  R. Peverati,  V. A. Rassolov,  Haisheng Ren,  Yihan Shao,  
 L. V. Slipchenko,  R. P. Steele,  J. E. Subotnik,  A. J. W. Thom,  
 A. Tkatchenko,  D. G. Truhlar,  T. Van Voorhis,  Fan Wang,  
 T. A. Wesolowski,  K. B. Whaley,  H. L. Woodcock III,  P. M. Zimmerman,  
 S. Faraji,  P. M. W. Gill,  M. Head-Gordon,  J. M. Herbert,  A. I. Krylov

 Contributors to earlier versions of Q-Chem not listed above: 
 R. D. Adamson,  B. Austin,  R. Baer,  J. Baker,  G. J. O. Beran,  
 K. Brandhorst,  S. T. Brown,  E. F. C. Byrd,  Arup K. Chakraborty,  
 G. K. L. Chan,  Chun-Min Chang,  Yunqing Chen,  C.-L. Cheng,  
 Siu Hung Chien,  D. M. Chipman,  D. L. Crittenden,  H. Dachsel,  
 R. J. Doerksen,  A. D. Dutoi,  R. G. Edgar,  J. Fosso-Tande,  
 L. Fusti-Molnar,  D. Ghosh,  A. Ghysels,  A. Golubeva-Zadorozhnaya,  
 J. Gonthier,  M. S. Gordon,  S. R. Gwaltney,  G. Hawkins,  J. E. Herr,  
 A. Heyden,  S. Hirata,  E. G. Hohenstein,  G. Kedziora,  F. J. Keil,  
 C. Kelley,  Jihan Kim,  R. A. King,  R. Z. Khaliullin,  P. P. Korambath,  
 W. Kurlancheek,  A. Laurent,  A. M. Lee,  M. S. Lee,  S. V. Levchenko,  
 Ching Yeh Lin,  D. Liotard,  E. Livshits,  R. C. Lochan,  I. Lotan,  
 L. A. Martinez-Martinez,  P. E. Maslen,  N. Nair,  D. P. O'Neill,  
 D. Neuhauser,  E. Neuscamman,  C. M. Oana,  R. Olivares-Amaya,  R. Olson,  
 T. M. Perrine,  B. Peters,  P. A. Pieniazek,  A. Prociuk,  Y. M. Rhee,  
 J. Ritchie,  M. A. Rohrdanz,  E. Rosta,  N. J. Russ,  H. F. Schaefer III,  
 M. W. Schmidt,  N. E. Schultz,  S. Sharma,  N. Shenvi,  C. D. Sherrill,  
 A. C. Simmonett,  A. Sodt,  T. Stein,  D. Stuck,  K. S. Thanthiriwatte,  
 V. Vanovschi,  L. Vogt,  Tao Wang,  A. Warshel,  M. A. Watson,  
 C. F. Williams,  Q. Wu,  X. Xu,  Jun Yang,  W. Zhang,  Yan Zhao

   Please cite Q-Chem as follows:
  "Software for the frontiers of quantum chemistry:
   An overview of developments in the Q-Chem 5 package"
   J. Chem. Phys. 155, 084801 (2021)
   https://doi.org/10.1063/5.0055522 (open access)

 Q-Chem 6.0.0 for Intel X86 EM64T Linux

 Parts of Q-Chem use Armadillo 9.900.5 (Nocturnal Misbehaviour).
 http://arma.sourceforge.net/

 Q-Chem begins on Wed Feb  8 13:03:20 2023  

 Host: iqmol
0

     Scratch files written to /aimm/scratch/qchem10038//
 Jul222 |scratch|qcdevops|jenkins|workspace|build_RNUM 6466   
 Processing $rem in /opt/qchem/qc600/config/preferences:
 Processing $rem in /home/epif/.qchemrc:

 Checking the input file for inconsistencies... 	...done.

--------------------------------------------------------------
User input:
--------------------------------------------------------------
$molecule
0 1
H   -2.8673270    3.3316838    1.7108101
C   -2.9273892    2.2227969    1.5729069
N   -1.5297807    1.7370070    1.5139797
H   -1.0752900    2.1093805    0.7078076
H   -1.5098650    0.7394261    1.4781086
C   -3.6571409    1.6023574    2.7590846
H   -4.6711686    2.0122058    2.8546629
H   -3.1288971    1.8091776    3.6994809
H   -3.7487470    0.5112294    2.6667397
C   -3.7126375    1.9317093    0.2971586
O   -3.4969831    1.0861271   -0.5532313
O   -4.7856787    2.7239993    0.0811885
H   -5.2236225    2.4681134   -0.7249730
$end

$rem
BASIS  =  6-31G
GUI  =  2
JOB_TYPE  =  Optimization
METHOD  =  HF
SCF_CONVERGENCE  =  8
$end

$geom_opt
hessian_verify = recomputed
final_vibrational_analysis = true
$end


--------------------------------------------------------------
 ----------------------------------------------------------------
             Standard Nuclear Orientation (Angstroms)
    I     Atom           X                Y                Z
 ----------------------------------------------------------------
    1      H       0.6967868404    -0.4832216913     1.4714821964
    2      C       0.6843203017    -0.1429520261     0.4055009313
    3      N       1.5463703793     1.0595406438     0.3450459599
    4      H       1.1459529571     1.7914016745     0.8920218227
    5      H       1.6493410042     1.3661472344    -0.5995388548
    6      C       1.2450051378    -1.2453604000    -0.4860306410
    7      H       0.6541492927    -2.1658451809    -0.3913721109
    8      H       2.2795620997    -1.4887849854    -0.2092677961
    9      H       1.2469731195    -0.9612822683    -1.5475273733
   10      C      -0.7596682763     0.1393066837     0.0003989490
   11      O      -1.1948066224     1.0509164344    -0.6809976619
   12      O      -1.6764894096    -0.7366064153     0.4673027910
   13      H      -2.5449326924    -0.4956449889     0.1592239287
 ----------------------------------------------------------------
 Molecular Point Group                 C1    NOp =  1
 Largest Abelian Subgroup              C1    NOp =  1
 Nuclear Repulsion Energy =         247.57555741 hartrees
 There are       24 alpha and       24 beta electrons
 Requested basis set is 6-31G
 There are 32 shells and 68 basis functions

 Total QAlloc Memory Limit   8000 MB
 Mega-Array Size       188 MB
 MEM_STATIC part       192 MB

 -----------------------------------------------------------------------
                STARTING GEOMETRY OPTIMIZER USING LIBOPT3
                by Peter F. McLaughlin, Yu Zhang, Evgeny Epifanovsky
 -----------------------------------------------------------------------

              Initial Energy and Gradient Calculation
  Checking Topology for Ill-Behaving Coordinates
  Done Checking Topology
 ----------------------------------------------------------------
             Standard Nuclear Orientation (Angstroms)
    I     Atom           X                Y                Z
 ----------------------------------------------------------------
    1      H       0.6967868404    -0.4832216913     1.4714821964
    2      C       0.6843203017    -0.1429520261     0.4055009313
    3      N       1.5463703793     1.0595406438     0.3450459599
    4      H       1.1459529571     1.7914016745     0.8920218227
    5      H       1.6493410042     1.3661472344    -0.5995388548
    6      C       1.2450051378    -1.2453604000    -0.4860306410
    7      H       0.6541492927    -2.1658451809    -0.3913721109
    8      H       2.2795620997    -1.4887849854    -0.2092677961
    9      H       1.2469731195    -0.9612822683    -1.5475273733
   10      C      -0.7596682763     0.1393066837     0.0003989490
   11      O      -1.1948066224     1.0509164344    -0.6809976619
   12      O      -1.6764894096    -0.7366064153     0.4673027910
   13      H      -2.5449326924    -0.4956449889     0.1592239287
 ----------------------------------------------------------------
 Molecular Point Group                 C1    NOp =  1
 Largest Abelian Subgroup              C1    NOp =  1
 Nuclear Repulsion Energy =         247.57555741 hartrees
 There are       24 alpha and       24 beta electrons

                       Distance Matrix (Angstroms)
             H (  1)   C (  2)   N (  3)   H (  4)   H (  5)   C (  6)
   C (  2)  1.119042
   N (  3)  2.090638  1.480802
   H (  4)  2.389861  2.047323  0.997566
   H (  5)  2.935414  2.053960  0.998424  1.630642
   C (  6)  2.171003  1.524631  2.468619  3.336280  2.645060
   H (  7)  2.510631  2.174400  3.426585  4.189126  3.675420  1.097890
   H (  8)  2.518185  2.175776  2.709021  3.641090  2.949598  1.098254
   H (  9)  3.105747  2.191019  2.784816  3.679521  2.545095  1.098854
   C ( 10)  2.161687  1.526067  2.506676  2.675033  2.769186  2.484478
   O ( 11)  3.250365  2.477281  2.926925  2.915796  2.862723  3.356126
   O ( 12)  2.589405  2.435091  3.691601  3.812793  4.076870  3.114933
   H ( 13)  3.497273  3.257778  4.380855  4.403432  4.651228  3.916894
             H (  7)   H (  8)   H (  9)   C ( 10)   O ( 11)   O ( 12)
   H (  8)  1.770181
   H (  9)  1.771752  1.770717
   C ( 10)  2.732415  3.454210  2.762966
   O ( 11)  3.721569  4.329417  3.280565  1.218474
   O ( 12)  2.865645  4.083364  3.557619  1.351216  2.178497
   H ( 13)  3.650596  4.939419  4.184300  1.901462  2.218257  0.952454

 
 Requested basis set is 6-31G
 There are 32 shells and 68 basis functions
 A cutoff of  1.0D-12 yielded    507 shell pairs
 There are      2388 function pairs
 Smallest overlap matrix eigenvalue = 4.76E-03

 Scale SEOQF with 1.000000e-01/1.000000e-01/1.000000e-01

 Standard Electronic Orientation quadrupole field applied
 Nucleus-field energy     =     0.0000000046 hartrees
 Guess from superposition of atomic densities
 Warning:  Energy on first SCF cycle will be non-variational
 SAD guess density has 48.000000 electrons

 -----------------------------------------------------------------------
  General SCF calculation program by
  Eric Jon Sundstrom, Paul Horn, Yuezhi Mao, Dmitri Zuev, Alec White,
  David Stuck, Shaama M.S., Shane Yost, Joonho Lee, David Small,
  Daniel Levine, Susi Lehtola, Hugh Burton, Evgeny Epifanovsky,
  Bang C. Huynh
 -----------------------------------------------------------------------
 Hartree-Fock
 A restricted SCF calculation will be
 performed using DIIS
 SCF converges when DIIS error is below 1.0e-08
 ---------------------------------------
  Cycle       Energy         DIIS error
 ---------------------------------------
    1    -323.4009679963      1.26e-01  
    2    -321.5615804464      1.57e-02  
    3    -321.6521160274      1.14e-02  
    4    -321.7092351225      1.47e-03  
    5    -321.7108863995      7.59e-04  
    6    -321.7112356262      1.79e-04  
    7    -321.7113005098      8.17e-05  
    8    -321.7113114122      2.92e-05  
    9    -321.7113128019      8.23e-06  
   10    -321.7113128824      2.84e-06  
   11    -321.7113128923      6.22e-07  
   12    -321.7113128929      1.77e-07  
   13    -321.7113128930      4.98e-08  
   14    -321.7113128930      1.07e-08  
   15    -321.7113128929      4.20e-09  Convergence criterion met
 ---------------------------------------
 SCF time:   CPU 2.47s  wall 2.00s 
 SCF   energy in the final basis set =     -321.7113128929
 Total energy in the final basis set =     -321.7113128929
 
 --------------------------------------------------------------
 
                    Orbital Energies (a.u.)
 --------------------------------------------------------------
 
 Alpha MOs
 -- Occupied --
-20.6172 -20.5736 -15.5563 -11.4131 -11.3033 -11.2418  -1.4972  -1.3738
 -1.2106  -1.0372  -0.9193  -0.8093  -0.7184  -0.6990  -0.6839  -0.6407
 -0.6078  -0.5960  -0.5456  -0.5320  -0.5168  -0.4787  -0.4616  -0.4065
 -- Virtual --
  0.1522   0.2146   0.2278   0.2642   0.2801   0.3085   0.3153   0.3266
  0.3744   0.3898   0.4379   0.5148   0.5393   0.7361   0.7616   0.7680
  0.8120   0.8574   0.8757   0.9421   0.9684   0.9991   1.0265   1.0456
  1.0883   1.1149   1.1748   1.1926   1.1971   1.2174   1.2321   1.2399
  1.2586   1.2826   1.3080   1.3507   1.3864   1.4159   1.5076   1.6164
  1.7345   1.8970   2.0943   2.2402
 --------------------------------------------------------------
 
          Ground-State Mulliken Net Atomic Charges

     Atom                 Charge (a.u.)
  ----------------------------------------
      1 H                     0.227346
      2 C                    -0.087681
      3 N                    -0.761818
      4 H                     0.324231
      5 H                     0.326003
      6 C                    -0.458136
      7 H                     0.185589
      8 H                     0.199017
      9 H                     0.168038
     10 C                     0.736032
     11 O                    -0.574219
     12 O                    -0.723269
     13 H                     0.438868
  ----------------------------------------
  Sum of atomic charges =     0.000000

 -----------------------------------------------------------------
                    Cartesian Multipole Moments
 -----------------------------------------------------------------
    Charge (ESU x 10^10)
                -0.0000
    Dipole Moment (Debye)
         X      -0.3277      Y      -1.0375      Z       0.2154
       Tot       1.1092
    Quadrupole Moments (Debye-Ang)
        XX     -37.2415     XY       0.7581     YY     -37.9537
        XZ      -2.9096     YZ       3.2962     ZZ     -36.9917
    Octopole Moments (Debye-Ang^2)
       XXX     -40.5611    XXY      -8.3093    XYY       6.6798
       YYY       6.1381    XXZ      -5.3939    XYZ      -7.1026
       YYZ       2.4548    XZZ       1.3106    YZZ       1.6230
       ZZZ       1.2782
    Hexadecapole Moments (Debye-Ang^3)
      XXXX    -365.8724   XXXY       1.3931   XXYY    -110.9474
      XYYY      13.0727   YYYY    -220.1410   XXXZ     -15.8635
      XXYZ      -0.6992   XYYZ      -2.5057   YYYZ       5.2433
      XXZZ     -88.9537   XYZZ       3.1969   YYZZ     -53.9005
      XZZZ      -0.7531   YZZZ      -0.5289   ZZZZ     -93.5116
 -----------------------------------------------------------------
 Calculating analytic gradient of the SCF energy
 Gradient of SCF Energy
            1           2           3           4           5           6
    1   0.0054333  -0.0075266   0.0254951  -0.0059807  -0.0050866  -0.0065343
    2  -0.0051098  -0.0060606   0.0158145  -0.0054714  -0.0032511   0.0186251
    3   0.0243666  -0.0210897   0.0060042  -0.0033528   0.0017944   0.0076946
            7           8           9          10          11          12
    1  -0.0044918   0.0111275   0.0011770   0.0173328  -0.0227911  -0.0130492
    2  -0.0090145  -0.0061755  -0.0005295  -0.0069193  -0.0064390   0.0114915
    3   0.0008354   0.0003521  -0.0099945   0.0002834   0.0015540  -0.0073626
           13
    1   0.0048946
    2   0.0030395
    3  -0.0010852
 Max gradient component =       2.550E-02
 RMS gradient           =       1.057E-02
 Gradient time:  CPU 0.67 s  wall 0.66 s

 *****************************************************
             Starting BFGS Algorithm
 *****************************************************
            LIBOPT3 RUN PARAMETERS

  Geometry Optimization Coordinates :
	Delocalized Natural Internal Coordinates

  Step Length Selection Method :
	Eigenvector Following Algorithm

  Convergence Criteria :
	Max Gradient Component    	3.00000000e-04
	Max Displacement Component	1.20000000e-03
	Absolute Energy Difference	1.00000000e-06

  Initial Hessian :
	Approximate Hessian - Simple Internal Coordinate Scaled

  Type of Verification :
	Verify with a recomputed Hessian Calculation
 *****************************************************

	OPTIMIZATION CYCLE:	1

 Scaling Magnitude of Eigenvalues
 	Minimum: -25.00000000	 Maximum: 25.00000000
 33 Hessian Eigenvalues to form next step
   0.10000000   0.10000000   0.10000000   0.10000000   0.10000051
   0.12000428   0.12183149   0.12905110   0.13202674   0.13294243
   0.13387883   0.17374721   0.18036070   0.19999882   0.20000000
   0.20000000   0.20000000   0.20000000   0.20000000   0.20000000
   0.20000000   0.50000000   0.50000000   0.50000000   0.50000000
   0.50000000   0.50000000   0.50000000   0.50000000   0.50000000
   0.50000000   0.50000000   0.50000000

 Minimum Search taking a RFO step
 Searching for Lambda that minimizes along all modes
	Value of Lambda  -0.01424063
	Norm of Stepsize  0.24705658
	RMS of Stepsize  0.04300703

	Performing Iterative Coordinate Back-Transformation

	  Starting from Previous Position

	  iter:	0	rms: 6.7585398893e-02	maxdev: 2.1662664569e-01
	  iter:	1	rms: 3.0616458834e-03	maxdev: 1.1358398329e-02
	  iter:	2	rms: 3.4323241416e-06	maxdev: 1.2614227846e-05
	  iter:	3	rms: 1.9023121721e-11	maxdev: 8.8819653226e-11	 Success!

	Finished Iterative Coordinate Back-Transformation
 ----------------------------------------------------------------
             Standard Nuclear Orientation (Angstroms)
    I     Atom           X                Y                Z
 ----------------------------------------------------------------
    1      H       0.6401570217    -0.4839335055     1.4337220529
    2      C       0.6564400378    -0.1406070716     0.3956498330
    3      N       1.5134286606     1.0478726068     0.3367318480
    4      H       1.1642507725     1.8091881286     0.8851024259
    5      H       1.6594922225     1.3670815183    -0.6014850922
    6      C       1.2227146152    -1.2491726995    -0.4863893072
    7      H       0.6307842829    -2.1580050458    -0.4063279423
    8      H       2.2391571203    -1.4761550305    -0.1787390653
    9      H       1.2407912433    -0.9490596980    -1.5331229413
   10      C      -0.7651610942     0.1658974648    -0.0137049291
   11      O      -1.0784803560     1.1198939263    -0.6994574280
   12      O      -1.6233821275    -0.7645449636     0.4787305165
   13      H      -2.5276282674    -0.6008409157     0.2155321701
 ----------------------------------------------------------------
 Molecular Point Group                 C1    NOp =  1
 Largest Abelian Subgroup              C1    NOp =  1
 Nuclear Repulsion Energy =         249.15274551 hartrees
 There are       24 alpha and       24 beta electrons

                       Distance Matrix (Angstroms)
             H (  1)   C (  2)   N (  3)   H (  4)   H (  5)   C (  6)
   C (  2)  1.093495
   N (  3)  2.076637  1.466419
   H (  4)  2.415381  2.073436  1.001118
   H (  5)  2.933832  2.067249  1.001738  1.628086
   C (  6)  2.147508  1.525640  2.457328  3.352309  2.654959
   H (  7)  2.487647  2.171111  3.407176  4.206067  3.677304  1.087551
   H (  8)  2.478172  2.149094  2.676398  3.616720  2.932357  1.085967
   H (  9)  3.062560  2.171457  2.749259  3.669006  2.531357  1.089057
   C ( 10)  2.119491  1.510783  2.468331  2.689031  2.768984  2.485458
   O ( 11)  3.174340  2.407918  2.792287  2.831219  2.750853  3.309588
   O ( 12)  2.472723  2.365119  3.625549  3.815775  4.060537  3.044107
   H ( 13)  3.395956  3.222196  4.366129  4.459432  4.698107  3.870155
             H (  7)   H (  8)   H (  9)   C ( 10)   O ( 11)   O ( 12)
   H (  8)  1.761698
   H (  9)  1.761625  1.763213
   C ( 10)  2.739222  3.427754  2.752382
   O ( 11)  3.708387  4.244683  3.217855  1.215950
   O ( 12)  2.793980  3.982193  3.505009  1.358219  2.288265
   H ( 13)  3.575897  4.862496  4.168937  1.935647  2.428614  0.955894

 
 Applying Cartesian multipole field
    Component          Value
    ---------          -----
     (2,0,0)        1.00000E-11
     (0,2,0)        2.00000E-11
     (0,0,2)       -3.00000E-11
 Nucleus-field energy     = 4.5100565226e-09 hartrees
 Requested basis set is 6-31G
 There are 32 shells and 68 basis functions
 A cutoff of  1.0D-12 yielded    507 shell pairs
 There are      2388 function pairs
 Smallest overlap matrix eigenvalue = 4.84E-03
 Guess MOs from SCF MO coefficient file

 -----------------------------------------------------------------------
  General SCF calculation program by
  Eric Jon Sundstrom, Paul Horn, Yuezhi Mao, Dmitri Zuev, Alec White,
  David Stuck, Shaama M.S., Shane Yost, Joonho Lee, David Small,
  Daniel Levine, Susi Lehtola, Hugh Burton, Evgeny Epifanovsky,
  Bang C. Huynh
 -----------------------------------------------------------------------
 Hartree-Fock
 A restricted SCF calculation will be
 performed using DIIS
 SCF converges when DIIS error is below 1.0e-08
 ---------------------------------------
  Cycle       Energy         DIIS error
 ---------------------------------------
    1    -321.7065947097      3.19e-03  
    2    -321.7154552035      8.89e-04  
    3    -321.7163341209      2.32e-04  
    4    -321.7163758839      7.48e-05  
    5    -321.7163817186      2.06e-05  
    6    -321.7163820779      6.67e-06  
    7    -321.7163821267      1.43e-06  
    8    -321.7163821310      7.37e-07  
    9    -321.7163821316      2.96e-07  
   10    -321.7163821319      1.33e-07  
   11    -321.7163821319      5.01e-08  
   12    -321.7163821319      1.53e-08  
   13    -321.7163821318      6.70e-09  Convergence criterion met
 ---------------------------------------
 SCF time:   CPU 2.13s  wall 2.00s 
 SCF   energy in the final basis set =     -321.7163821318
 Total energy in the final basis set =     -321.7163821318
 
 --------------------------------------------------------------
 
                    Orbital Energies (a.u.)
 --------------------------------------------------------------
 
 Alpha MOs
 -- Occupied --
-20.6281 -20.5783 -15.5455 -11.4118 -11.2879 -11.2331  -1.4887  -1.3890
 -1.2031  -1.0331  -0.9224  -0.8105  -0.7194  -0.7006  -0.6786  -0.6402
 -0.6037  -0.5966  -0.5483  -0.5320  -0.5137  -0.4851  -0.4595  -0.3954
 -- Virtual --
  0.1569   0.2114   0.2283   0.2732   0.2844   0.3134   0.3241   0.3334
  0.3805   0.4088   0.4458   0.4922   0.5606   0.7349   0.7635   0.7682
  0.8214   0.8581   0.8829   0.9450   0.9690   1.0001   1.0219   1.0537
  1.0974   1.1115   1.1864   1.1916   1.2091   1.2259   1.2387   1.2449
  1.2659   1.2995   1.3102   1.3547   1.3892   1.4373   1.5015   1.5979
  1.7629   1.9234   2.1291   2.2194
 --------------------------------------------------------------
 
          Ground-State Mulliken Net Atomic Charges

     Atom                 Charge (a.u.)
  ----------------------------------------
      1 H                     0.220476
      2 C                    -0.078018
      3 N                    -0.781305
      4 H                     0.323770
      5 H                     0.326259
      6 C                    -0.452003
      7 H                     0.182482
      8 H                     0.196531
      9 H                     0.164027
     10 C                     0.741004
     11 O                    -0.555679
     12 O                    -0.725044
     13 H                     0.437499
  ----------------------------------------
  Sum of atomic charges =     0.000000

 -----------------------------------------------------------------
                    Cartesian Multipole Moments
 -----------------------------------------------------------------
    Charge (ESU x 10^10)
                 0.0000
    Dipole Moment (Debye)
         X      -0.9238      Y      -1.1743      Z       0.2677
       Tot       1.5179
    Quadrupole Moments (Debye-Ang)
        XX     -35.7227     XY       1.4963     YY     -37.9879
        XZ      -3.0135     YZ       3.3152     ZZ     -37.0834
    Octopole Moments (Debye-Ang^2)
       XXX     -43.1800    XXY      -8.8583    XYY       5.8177
       YYY       5.1413    XXZ      -4.3096    XYZ      -6.6450
       YYZ       3.1666    XZZ       0.4342    YZZ       1.3428
       ZZZ       1.6936
    Hexadecapole Moments (Debye-Ang^3)
      XXXX    -338.7195   XXXY       6.1048   XXYY    -105.1537
      XYYY      14.1238   YYYY    -226.1596   XXXZ     -15.4973
      XXYZ      -1.2583   XYYZ      -1.8752   YYYZ       7.5201
      XXZZ     -84.4075   XYZZ       3.2498   YYZZ     -55.0505
      XZZZ       0.4750   YZZZ       1.2687   ZZZZ     -94.1658
 -----------------------------------------------------------------
 Calculating analytic gradient of the SCF energy
 Gradient of SCF Energy
            1           2           3           4           5           6
    1   0.0015815  -0.0092533   0.0110851  -0.0034131  -0.0024983  -0.0027177
    2  -0.0016657  -0.0090511   0.0041266   0.0020788   0.0016131   0.0085547
    3   0.0085239  -0.0125430   0.0060230  -0.0024077  -0.0013071   0.0033852
            7           8           9          10          11          12
    1  -0.0013655   0.0032270  -0.0000867  -0.0147412   0.0111122   0.0053542
    2  -0.0034531  -0.0022726  -0.0002794  -0.0010267   0.0123538  -0.0147048
    3   0.0000368   0.0006747  -0.0031670  -0.0027763  -0.0066354   0.0121543
           13
    1   0.0017156
    2   0.0037264
    3  -0.0019613
 Max gradient component =       1.474E-02
 RMS gradient           =       6.608E-03
 Gradient time:  CPU 0.65 s  wall 0.65 s

     Step 1	:
        Energy is -321.7163821318
                            Maximum         Tolerance       Converged?
         Gradient           1.69412252e-02	3.00000000e-04	false
         Displacement       1.14023792e-01	1.20000000e-03	false
         Energy change      5.06923891e-03	1.00000000e-06	false


	OPTIMIZATION CYCLE:	2

 Scaling Magnitude of Eigenvalues
 	Minimum: -25.00000000	 Maximum: 25.00000000
 33 Hessian Eigenvalues to form next step
   0.09872256   0.10000000   0.10000000   0.10000002   0.10000251
   0.11481407   0.12002145   0.12840211   0.13190388   0.13286416
   0.13390580   0.17392870   0.17601995   0.18593522   0.19999960
   0.20000000   0.20000000   0.20000000   0.20000000   0.20000000
   0.33102635   0.44154986   0.50000000   0.50000000   0.50000000
   0.50000000   0.50000000   0.50000000   0.50000000   0.50000000
   0.50000000   0.50000000   0.54473157

 Minimum Search taking a RFO step
 Searching for Lambda that minimizes along all modes
	Value of Lambda  -0.00321069
	Norm of Stepsize  0.10578778
	RMS of Stepsize  0.01841529

	Performing Iterative Coordinate Back-Transformation

	  Starting from Previous Position

	  iter:	0	rms: 2.3935664105e-02	maxdev: 7.4151634469e-02
	  iter:	1	rms: 3.7151478462e-04	maxdev: 9.2811012208e-04
	  iter:	2	rms: 8.1672825405e-08	maxdev: 3.3943570668e-07	 Success!

	Finished Iterative Coordinate Back-Transformation
 ----------------------------------------------------------------
             Standard Nuclear Orientation (Angstroms)
    I     Atom           X                Y                Z
 ----------------------------------------------------------------
    1      H       0.6375066019    -0.4794105213     1.4236492588
    2      C       0.6581260726    -0.1355237428     0.3982793481
    3      N       1.5177023904     1.0377703882     0.3302506876
    4      H       1.2023990941     1.8085880018     0.8847810319
    5      H       1.6808057120     1.3549601221    -0.6052471824
    6      C       1.2260513893    -1.2459146577    -0.4846918859
    7      H       0.6368367202    -2.1507619513    -0.4059479082
    8      H       2.2377967137    -1.4608271098    -0.1716058977
    9      H       1.2435425740    -0.9381500975    -1.5247805206
   10      C      -0.7658588369     0.1660820837    -0.0067035743
   11      O      -1.1172345998     1.1001659146    -0.6849305716
   12      O      -1.6372755437    -0.7564021595     0.4649873075
   13      H      -2.5478341559    -0.6129615557     0.2082020479
 ----------------------------------------------------------------
 Molecular Point Group                 C1    NOp =  1
 Largest Abelian Subgroup              C1    NOp =  1
 Nuclear Repulsion Energy =         249.51838989 hartrees
 There are       24 alpha and       24 beta electrons

                       Distance Matrix (Angstroms)
             H (  1)   C (  2)   N (  3)   H (  4)   H (  5)   C (  6)
   C (  2)  1.081696
   N (  3)  2.066907  1.456063
   H (  4)  2.417523  2.076653  1.000540
   H (  5)  2.927424  2.067482  1.001183  1.629367
   C (  6)  2.139084  1.528118  2.442214  3.347537  2.643082
   H (  7)  2.478072  2.169889  3.388901  4.202653  3.663288  1.082646
   H (  8)  2.463523  2.139289  2.648280  3.588464  2.902919  1.080666
   H (  9)  3.044825  2.164505  2.724072  3.654073  2.509003  1.084808
   C ( 10)  2.105233  1.510864  2.467393  2.714150  2.785292  2.487954
   O ( 11)  3.165484  2.419128  2.824425  2.889041  2.810747  3.321924
   O ( 12)  2.484027  2.378825  3.631955  3.849565  4.075894  3.056167
   H ( 13)  3.411971  3.246884  4.389578  4.515076  4.734534  3.888823
             H (  7)   H (  8)   H (  9)   C ( 10)   O ( 11)   O ( 12)
   H (  8)  1.758977
   H (  9)  1.757927  1.758640
   C ( 10)  2.737648  3.419938  2.749833
   O ( 11)  3.704474  4.251873  3.230069  1.206636
   O ( 12)  2.806128  3.989693  3.505898  1.353823  2.244905
   H ( 13)  3.589448  4.874976  4.181329  1.956663  2.403977  0.956886

 
 Applying Cartesian multipole field
    Component          Value
    ---------          -----
     (2,0,0)        1.00000E-11
     (0,2,0)        2.00000E-11
     (0,0,2)       -3.00000E-11
 Nucleus-field energy     = 4.5446571299e-09 hartrees
 Requested basis set is 6-31G
 There are 32 shells and 68 basis functions
 A cutoff of  1.0D-12 yielded    507 shell pairs
 There are      2388 function pairs
 Smallest overlap matrix eigenvalue = 4.67E-03
 Guess MOs from SCF MO coefficient file

 -----------------------------------------------------------------------
  General SCF calculation program by
  Eric Jon Sundstrom, Paul Horn, Yuezhi Mao, Dmitri Zuev, Alec White,
  David Stuck, Shaama M.S., Shane Yost, Joonho Lee, David Small,
  Daniel Levine, Susi Lehtola, Hugh Burton, Evgeny Epifanovsky,
  Bang C. Huynh
 -----------------------------------------------------------------------
 Hartree-Fock
 A restricted SCF calculation will be
 performed using DIIS
 SCF converges when DIIS error is below 1.0e-08
 ---------------------------------------
  Cycle       Energy         DIIS error
 ---------------------------------------
    1    -321.7170153889      1.12e-03  
    2    -321.7180853190      3.10e-04  
    3    -321.7181882047      8.34e-05  
    4    -321.7181946065      2.87e-05  
    5    -321.7181954678      1.01e-05  
    6    -321.7181955513      3.81e-06  
    7    -321.7181955646      1.11e-06  
    8    -321.7181955666      5.20e-07  
    9    -321.7181955673      1.95e-07  
   10    -321.7181955674      7.80e-08  
   11    -321.7181955674      2.24e-08  
   12    -321.7181955674      7.98e-09  Convergence criterion met
 ---------------------------------------
 SCF time:   CPU 1.96s  wall 2.00s 
 SCF   energy in the final basis set =     -321.7181955674
 Total energy in the final basis set =     -321.7181955674
 
 --------------------------------------------------------------
 
                    Orbital Energies (a.u.)
 --------------------------------------------------------------
 
 Alpha MOs
 -- Occupied --
-20.6203 -20.5739 -15.5461 -11.4084 -11.2881 -11.2318  -1.4902  -1.3849
 -1.2066  -1.0335  -0.9228  -0.8137  -0.7210  -0.6980  -0.6808  -0.6398
 -0.6073  -0.5942  -0.5477  -0.5345  -0.5153  -0.4823  -0.4588  -0.3952
 -- Virtual --
  0.1616   0.2136   0.2278   0.2738   0.2847   0.3137   0.3250   0.3337
  0.3833   0.4101   0.4493   0.5029   0.5589   0.7358   0.7638   0.7680
  0.8207   0.8595   0.8810   0.9565   0.9683   0.9996   1.0214   1.0559
  1.1032   1.1186   1.1929   1.1957   1.2127   1.2295   1.2438   1.2504
  1.2686   1.2997   1.3115   1.3559   1.3939   1.4360   1.5203   1.5997
  1.7651   1.9088   2.1249   2.2351
 --------------------------------------------------------------
 
          Ground-State Mulliken Net Atomic Charges

     Atom                 Charge (a.u.)
  ----------------------------------------
      1 H                     0.220591
      2 C                    -0.071267
      3 N                    -0.788517
      4 H                     0.326408
      5 H                     0.328142
      6 C                    -0.449198
      7 H                     0.183022
      8 H                     0.196644
      9 H                     0.163456
     10 C                     0.738490
     11 O                    -0.552006
     12 O                    -0.735954
     13 H                     0.440188
  ----------------------------------------
  Sum of atomic charges =     0.000000

 -----------------------------------------------------------------
                    Cartesian Multipole Moments
 -----------------------------------------------------------------
    Charge (ESU x 10^10)
                 0.0000
    Dipole Moment (Debye)
         X      -0.6806      Y      -1.1050      Z       0.2981
       Tot       1.3316
    Quadrupole Moments (Debye-Ang)
        XX     -35.6038     XY       1.8316     YY     -37.7868
        XZ      -2.9472     YZ       3.3057     ZZ     -36.9212
    Octopole Moments (Debye-Ang^2)
       XXX     -42.1198    XXY      -8.5984    XYY       6.3708
       YYY       5.5516    XXZ      -4.1397    XYZ      -6.5144
       YYZ       3.2006    XZZ       0.7961    YZZ       1.5611
       ZZZ       1.6281
    Hexadecapole Moments (Debye-Ang^3)
      XXXX    -341.5350   XXXY       8.6495   XXYY    -104.6023
      XYYY      15.0241   YYYY    -222.0727   XXXZ     -15.5742
      XXYZ      -1.0484   XYYZ      -1.5730   YYYZ       7.1256
      XXZZ     -84.8343   XYZZ       3.5320   YYZZ     -53.9261
      XZZZ       0.3082   YZZZ       0.7854   ZZZZ     -92.3798
 -----------------------------------------------------------------
 Calculating analytic gradient of the SCF energy
 Gradient of SCF Energy
            1           2           3           4           5           6
    1   0.0009086  -0.0053495   0.0078564  -0.0024201  -0.0018461   0.0003018
    2   0.0003602  -0.0063699  -0.0019973   0.0027479   0.0023211   0.0042891
    3   0.0005021  -0.0046143   0.0052655  -0.0025652  -0.0011208   0.0010139
            7           8           9          10          11          12
    1   0.0000361  -0.0001507  -0.0003883  -0.0026799   0.0046781   0.0017797
    2  -0.0005267  -0.0006056  -0.0001817   0.0070334  -0.0062570  -0.0005590
    3   0.0000579   0.0002369  -0.0001932  -0.0040262   0.0040140   0.0015713
           13
    1  -0.0027262
    2  -0.0002546
    3  -0.0001419
 Max gradient component =       7.856E-03
 RMS gradient           =       3.199E-03
 Gradient time:  CPU 0.66 s  wall 0.66 s

     Step 2	:
        Energy is -321.7181955674
                            Maximum         Tolerance       Converged?
         Gradient           5.10916121e-03	3.00000000e-04	false
         Displacement       5.14547063e-02	1.20000000e-03	false
         Energy change      1.81343555e-03	1.00000000e-06	false


	OPTIMIZATION CYCLE:	3

 Scaling Magnitude of Eigenvalues
 	Minimum: -25.00000000	 Maximum: 25.00000000
 33 Hessian Eigenvalues to form next step
   0.08819248   0.10000000   0.10000000   0.10000021   0.10008964
   0.10554185   0.12001974   0.12826303   0.13189178   0.13283662
   0.13368386   0.17400802   0.17991268   0.19050418   0.19999990
   0.20000000   0.20000000   0.20000000   0.20000000   0.20062920
   0.29292331   0.42708960   0.49873775   0.50000000   0.50000000
   0.50000000   0.50000000   0.50000000   0.50000000   0.50000000
   0.50000000   0.50000000   0.65811812

 Minimum Search taking a RFO step
 Searching for Lambda that minimizes along all modes
	Value of Lambda  -0.00065163
	Norm of Stepsize  0.06857644
	RMS of Stepsize  0.01193763

	Performing Iterative Coordinate Back-Transformation

	  Starting from Previous Position

	  iter:	0	rms: 1.3773551139e-02	maxdev: 5.1502568018e-02
	  iter:	1	rms: 1.4268481552e-04	maxdev: 4.7303322580e-04
	  iter:	2	rms: 1.3061448130e-08	maxdev: 5.4188647497e-08	 Success!

	Finished Iterative Coordinate Back-Transformation
 ----------------------------------------------------------------
             Standard Nuclear Orientation (Angstroms)
    I     Atom           X                Y                Z
 ----------------------------------------------------------------
    1      H       0.6370074742    -0.4739352458     1.4223780846
    2      C       0.6592961312    -0.1280827451     0.4008801172
    3      N       1.5166361324     1.0372098018     0.3268339422
    4      H       1.2239211138     1.8069771393     0.8919771420
    5      H       1.6926303099     1.3496585005    -0.6060292780
    6      C       1.2223605709    -1.2454514182    -0.4831200009
    7      H       0.6306476772    -2.1464905993    -0.4012198100
    8      H       2.2336195326    -1.4576334652    -0.1709053475
    9      H       1.2390418297    -0.9372777352    -1.5219478475
   10      C      -0.7670503104     0.1672178420    -0.0049540658
   11      O      -1.1445491408     1.1008461404    -0.6852232950
   12      O      -1.6317970563    -0.7619224082     0.4588072394
   13      H      -2.5392001324    -0.6235010922     0.1987652604
 ----------------------------------------------------------------
 Molecular Point Group                 C1    NOp =  1
 Largest Abelian Subgroup              C1    NOp =  1
 Nuclear Repulsion Energy =         249.36564140 hartrees
 There are       24 alpha and       24 beta electrons

                       Distance Matrix (Angstroms)
             H (  1)   C (  2)   N (  3)   H (  4)   H (  5)   C (  6)
   C (  2)  1.078688
   N (  3)  2.063377  1.448593
   H (  4)  2.414198  2.074713  0.998805
   H (  5)  2.924768  2.065276  0.999416  1.634886
   C (  6)  2.137475  1.531996  2.439911  3.347867  2.640238
   H (  7)  2.474468  2.172132  3.383931  4.201695  3.659619  1.081066
   H (  8)  2.460769  2.138490  2.643114  3.578672  2.891866  1.079418
   H (  9)  3.040754  2.165218  2.719127  3.654887  2.504940  1.083703
   C ( 10)  2.102316  1.512074  2.466210  2.730799  2.794546  2.486369
   O ( 11)  3.177399  2.437980  2.847844  2.931865  2.849169  3.338895
   O ( 12)  2.481709  2.377860  3.628626  3.865489  4.079763  3.044215
   H ( 13)  3.407036  3.242941  4.384538  4.533084  4.738084  3.873129
             H (  7)   H (  8)   H (  9)   C ( 10)   O ( 11)   O ( 12)
   H (  8)  1.759854
   H (  9)  1.757376  1.756494
   C ( 10)  2.732002  3.416387  2.746923
   O ( 11)  3.711762  4.268766  3.245853  1.215291
   O ( 12)  2.788428  3.977687  3.492257  1.351356  2.239670
   H ( 13)  3.567550  4.859243  4.163463  1.951218  2.387438  0.954024

 
 Applying Cartesian multipole field
    Component          Value
    ---------          -----
     (2,0,0)        1.00000E-11
     (0,2,0)        2.00000E-11
     (0,0,2)       -3.00000E-11
 Nucleus-field energy     = 4.5630078845e-09 hartrees
 Requested basis set is 6-31G
 There are 32 shells and 68 basis functions
 A cutoff of  1.0D-12 yielded    507 shell pairs
 There are      2388 function pairs
 Smallest overlap matrix eigenvalue = 4.64E-03
 Guess MOs from SCF MO coefficient file

 -----------------------------------------------------------------------
  General SCF calculation program by
  Eric Jon Sundstrom, Paul Horn, Yuezhi Mao, Dmitri Zuev, Alec White,
  David Stuck, Shaama M.S., Shane Yost, Joonho Lee, David Small,
  Daniel Levine, Susi Lehtola, Hugh Burton, Evgeny Epifanovsky,
  Bang C. Huynh
 -----------------------------------------------------------------------
 Hartree-Fock
 A restricted SCF calculation will be
 performed using DIIS
 SCF converges when DIIS error is below 1.0e-08
 ---------------------------------------
  Cycle       Energy         DIIS error
 ---------------------------------------
    1    -321.7180590080      7.34e-04  
    2    -321.7185052945      2.15e-04  
    3    -321.7185453587      1.16e-04  
    4    -321.7185526120      2.36e-05  
    5    -321.7185532600      1.21e-05  
    6    -321.7185534189      3.66e-06  
    7    -321.7185534500      1.65e-06  
    8    -321.7185534566      5.98e-07  
    9    -321.7185534577      2.06e-07  
   10    -321.7185534578      8.67e-08  
   11    -321.7185534578      2.70e-08  
   12    -321.7185534578      1.03e-08  
   13    -321.7185534578      3.20e-09  Convergence criterion met
 ---------------------------------------
 SCF time:   CPU 2.09s  wall 2.00s 
 SCF   energy in the final basis set =     -321.7185534578
 Total energy in the final basis set =     -321.7185534578
 
 --------------------------------------------------------------
 
                    Orbital Energies (a.u.)
 --------------------------------------------------------------
 
 Alpha MOs
 -- Occupied --
-20.6195 -20.5721 -15.5457 -11.4081 -11.2890 -11.2319  -1.4885  -1.3798
 -1.2087  -1.0338  -0.9236  -0.8149  -0.7205  -0.6971  -0.6822  -0.6391
 -0.6096  -0.5930  -0.5475  -0.5364  -0.5156  -0.4789  -0.4585  -0.3944
 -- Virtual --
  0.1601   0.2151   0.2278   0.2736   0.2846   0.3138   0.3246   0.3335
  0.3836   0.4100   0.4501   0.5056   0.5565   0.7368   0.7636   0.7682
  0.8209   0.8608   0.8785   0.9483   0.9670   1.0003   1.0203   1.0557
  1.1045   1.1209   1.1947   1.1961   1.2135   1.2319   1.2461   1.2521
  1.2703   1.2992   1.3129   1.3563   1.3984   1.4351   1.5225   1.6028
  1.7606   1.9012   2.1208   2.2379
 --------------------------------------------------------------
 
          Ground-State Mulliken Net Atomic Charges

     Atom                 Charge (a.u.)
  ----------------------------------------
      1 H                     0.220895
      2 C                    -0.067298
      3 N                    -0.793817
      4 H                     0.328795
      5 H                     0.330282
      6 C                    -0.448863
      7 H                     0.183974
      8 H                     0.196360
      9 H                     0.163645
     10 C                     0.741646
     11 O                    -0.561918
     12 O                    -0.734141
     13 H                     0.440439
  ----------------------------------------
  Sum of atomic charges =     0.000000

 -----------------------------------------------------------------
                    Cartesian Multipole Moments
 -----------------------------------------------------------------
    Charge (ESU x 10^10)
                 0.0000
    Dipole Moment (Debye)
         X      -0.5134      Y      -1.1263      Z       0.3557
       Tot       1.2879
    Quadrupole Moments (Debye-Ang)
        XX     -35.6073     XY       2.1190     YY     -37.8026
        XZ      -2.9368     YZ       3.3741     ZZ     -36.8487
    Octopole Moments (Debye-Ang^2)
       XXX     -40.7002    XXY      -8.6074    XYY       6.7889
       YYY       5.4183    XXZ      -3.9167    XYZ      -6.4701
       YYZ       3.3364    XZZ       1.1225    YZZ       1.6092
       ZZZ       1.8359
    Hexadecapole Moments (Debye-Ang^3)
      XXXX    -343.0496   XXXY      10.3468   XXYY    -104.3842
      XYYY      15.8057   YYYY    -222.1148   XXXZ     -16.0176
      XXYZ      -0.6617   XYYZ      -1.6185   YYYZ       7.3894
      XXZZ     -84.7800   XYZZ       3.8611   YYZZ     -53.7234
      XZZZ      -0.2953   YZZZ       0.9526   ZZZZ     -91.9542
 -----------------------------------------------------------------
 Calculating analytic gradient of the SCF energy
 Gradient of SCF Energy
            1           2           3           4           5           6
    1   0.0009138  -0.0026182   0.0047794  -0.0018022  -0.0014376   0.0008380
    2   0.0006014  -0.0040444  -0.0029616   0.0017474   0.0014213   0.0016450
    3  -0.0017245  -0.0000266   0.0040898  -0.0022572  -0.0004592  -0.0002368
            7           8           9          10          11          12
    1   0.0003313  -0.0009080  -0.0002911   0.0046606  -0.0035430  -0.0010213
    2   0.0003145   0.0000543  -0.0001798  -0.0030703   0.0030493   0.0021727
    3  -0.0000172  -0.0000015   0.0005949   0.0040842  -0.0037094  -0.0009422
           13
    1   0.0000981
    2  -0.0007498
    3   0.0006059
 Max gradient component =       4.779E-03
 RMS gradient           =       2.192E-03
 Gradient time:  CPU 0.66 s  wall 0.66 s

     Step 3	:
        Energy is -321.7185534578
                            Maximum         Tolerance       Converged?
         Gradient           5.00481423e-03	3.00000000e-04	false
         Displacement       3.24379822e-02	1.20000000e-03	false
         Energy change      3.57890434e-04	1.00000000e-06	false


	OPTIMIZATION CYCLE:	4

 Scaling Magnitude of Eigenvalues
 	Minimum: -25.00000000	 Maximum: 25.00000000
 33 Hessian Eigenvalues to form next step
   0.04796416   0.09994145   0.10000000   0.10000010   0.10000165
   0.10375649   0.12003805   0.12827091   0.13193719   0.13287350
   0.13369163   0.17398212   0.17763020   0.18790068   0.19882042
   0.19999999   0.20000000   0.20000000   0.20000000   0.20712014
   0.36512947   0.43719640   0.47756901   0.50000000   0.50000000
   0.50000000   0.50000000   0.50000000   0.50000000   0.50000000
   0.50000000   0.53599995   0.84681636

 Minimum Search taking a RFO step
 Searching for Lambda that minimizes along all modes
	Value of Lambda  -0.00034212
	Norm of Stepsize  0.07227237
	RMS of Stepsize  0.01258100

	Performing Iterative Coordinate Back-Transformation

	  Starting from Previous Position

	  iter:	0	rms: 1.1805105027e-02	maxdev: 3.7513498569e-02
	  iter:	1	rms: 1.3450751067e-04	maxdev: 4.4872614363e-04
	  iter:	2	rms: 1.0549378362e-08	maxdev: 4.2042462641e-08	 Success!

	Finished Iterative Coordinate Back-Transformation
 ----------------------------------------------------------------
             Standard Nuclear Orientation (Angstroms)
    I     Atom           X                Y                Z
 ----------------------------------------------------------------
    1      H       0.6361579826    -0.4676917689     1.4230590417
    2      C       0.6592811499    -0.1196713124     0.4025647553
    3      N       1.5123720759     1.0410782316     0.3211575384
    4      H       1.2437806569     1.8074862457     0.8997919686
    5      H       1.7020035038     1.3489361833    -0.6087577521
    6      C       1.2170993383    -1.2449072499    -0.4816960927
    7      H       0.6229522053    -2.1430531619    -0.3943410124
    8      H       2.2296204654    -1.4552706164    -0.1723987913
    9      H       1.2317572229    -0.9386613821    -1.5209781677
   10      C      -0.7697246938     0.1661423275    -0.0027728590
   11      O      -1.1512527996     1.0981841013    -0.6779111226
   12      O      -1.6283699035    -0.7714496454     0.4522658336
   13      H      -2.5331130725    -0.6335072378     0.1862588013
 ----------------------------------------------------------------
 Molecular Point Group                 C1    NOp =  1
 Largest Abelian Subgroup              C1    NOp =  1
 Nuclear Repulsion Energy =         249.55614612 hartrees
 There are       24 alpha and       24 beta electrons

                       Distance Matrix (Angstroms)
             H (  1)   C (  2)   N (  3)   H (  4)   H (  5)   C (  6)
   C (  2)  1.078453
   N (  3)  2.063571  1.442820
   H (  4)  2.412353  2.074322  0.997166
   H (  5)  2.926507  2.065636  0.997737  1.641937
   C (  6)  2.137674  1.535980  2.440797  3.350571  2.641837
   H (  7)  2.471832  2.174960  3.382558  4.203209  3.661190  1.080420
   H (  8)  2.461691  2.140181  2.643823  3.573102  2.886584  1.079406
   H (  9)  3.040379  2.167600  2.718746  3.660819  2.507265  1.083563
   C ( 10)  2.100297  1.512629  2.465443  2.750061  2.806361  2.483525
   O ( 11)  3.171889  2.434878  2.845399  2.954394  2.865088  3.337315
   O ( 12)  2.482498  2.379208  3.628596  3.885928  4.088177  3.032019
   H ( 13)  3.406090  3.240709  4.380455  4.553296  4.743242  3.857987
             H (  7)   H (  8)   H (  9)   C ( 10)   O ( 11)   O ( 12)
   H (  8)  1.761728
   H (  9)  1.757986  1.755358
   C ( 10)  2.724933  3.413770  2.744352
   O ( 11)  3.705919  4.266846  3.246265  1.212467
   O ( 12)  2.768843  3.967607  3.478790  1.350337  2.236173
   H ( 13)  3.546346  4.846397  4.145121  1.945433  2.378042  0.953073

 
 Applying Cartesian multipole field
    Component          Value
    ---------          -----
     (2,0,0)        1.00000E-11
     (0,2,0)        2.00000E-11
     (0,0,2)       -3.00000E-11
 Nucleus-field energy     = 4.5814699220e-09 hartrees
 Requested basis set is 6-31G
 There are 32 shells and 68 basis functions
 A cutoff of  1.0D-12 yielded    507 shell pairs
 There are      2388 function pairs
 Smallest overlap matrix eigenvalue = 4.63E-03
 Guess MOs from SCF MO coefficient file

 -----------------------------------------------------------------------
  General SCF calculation program by
  Eric Jon Sundstrom, Paul Horn, Yuezhi Mao, Dmitri Zuev, Alec White,
  David Stuck, Shaama M.S., Shane Yost, Joonho Lee, David Small,
  Daniel Levine, Susi Lehtola, Hugh Burton, Evgeny Epifanovsky,
  Bang C. Huynh
 -----------------------------------------------------------------------
 Hartree-Fock
 A restricted SCF calculation will be
 performed using DIIS
 SCF converges when DIIS error is below 1.0e-08
 ---------------------------------------
  Cycle       Energy         DIIS error
 ---------------------------------------
    1    -321.7185779572      4.66e-04  
    2    -321.7187767865      1.37e-04  
    3    -321.7187960391      5.44e-05  
    4    -321.7187983558      1.26e-05  
    5    -321.7187987003      5.22e-06  
    6    -321.7187987511      2.73e-06  
    7    -321.7187987673      1.22e-06  
    8    -321.7187987712      4.31e-07  
    9    -321.7187987718      1.19e-07  
   10    -321.7187987718      5.03e-08  
   11    -321.7187987718      1.08e-08  
   12    -321.7187987718      3.68e-09  Convergence criterion met
 ---------------------------------------
 SCF time:   CPU 1.95s  wall 2.00s 
 SCF   energy in the final basis set =     -321.7187987718
 Total energy in the final basis set =     -321.7187987718
 
 --------------------------------------------------------------
 
                    Orbital Energies (a.u.)
 --------------------------------------------------------------
 
 Alpha MOs
 -- Occupied --
-20.6188 -20.5711 -15.5444 -11.4066 -11.2887 -11.2316  -1.4894  -1.3803
 -1.2089  -1.0329  -0.9227  -0.8149  -0.7203  -0.6972  -0.6833  -0.6393
 -0.6111  -0.5928  -0.5475  -0.5375  -0.5148  -0.4785  -0.4578  -0.3924
 -- Virtual --
  0.1620   0.2159   0.2283   0.2737   0.2849   0.3143   0.3249   0.3337
  0.3843   0.4119   0.4509   0.5067   0.5588   0.7379   0.7639   0.7690
  0.8208   0.8619   0.8777   0.9520   0.9663   1.0015   1.0196   1.0556
  1.1046   1.1227   1.1952   1.1961   1.2143   1.2333   1.2476   1.2543
  1.2718   1.2994   1.3146   1.3566   1.4013   1.4386   1.5232   1.6048
  1.7578   1.8970   2.1209   2.2410
 --------------------------------------------------------------
 
          Ground-State Mulliken Net Atomic Charges

     Atom                 Charge (a.u.)
  ----------------------------------------
      1 H                     0.219518
      2 C                    -0.063345
      3 N                    -0.799942
      4 H                     0.330952
      5 H                     0.332494
      6 C                    -0.449335
      7 H                     0.184580
      8 H                     0.195400
      9 H                     0.163178
     10 C                     0.739934
     11 O                    -0.559754
     12 O                    -0.733196
     13 H                     0.439515
  ----------------------------------------
  Sum of atomic charges =     0.000000

 -----------------------------------------------------------------
                    Cartesian Multipole Moments
 -----------------------------------------------------------------
    Charge (ESU x 10^10)
                 0.0000
    Dipole Moment (Debye)
         X      -0.4276      Y      -1.0973      Z       0.3696
       Tot       1.2343
    Quadrupole Moments (Debye-Ang)
        XX     -35.4827     XY       2.2857     YY     -37.8214
        XZ      -2.8213     YZ       3.4142     ZZ     -36.7363
    Octopole Moments (Debye-Ang^2)
       XXX     -39.7038    XXY      -8.2933    XYY       7.0242
       YYY       5.5484    XXZ      -3.8774    XYZ      -6.3666
       YYZ       3.3832    XZZ       1.2973    YZZ       1.7858
       ZZZ       1.8739
    Hexadecapole Moments (Debye-Ang^3)
      XXXX    -342.2907   XXXY      10.8916   XXYY    -103.9008
      XYYY      15.6518   YYYY    -222.4717   XXXZ     -15.4828
      XXYZ      -0.3934   XYYZ      -1.3973   YYYZ       7.3802
      XXZZ     -84.2678   XYZZ       3.8999   YYZZ     -53.4586
      XZZZ      -0.3016   YZZZ       0.8900   ZZZZ     -91.1536
 -----------------------------------------------------------------
 Calculating analytic gradient of the SCF energy
 Gradient of SCF Energy
            1           2           3           4           5           6
    1   0.0003542  -0.0005955   0.0021766  -0.0011966  -0.0007949   0.0004754
    2   0.0002190   0.0002526  -0.0025530   0.0007975   0.0005539  -0.0004974
    3  -0.0022227   0.0015821   0.0026372  -0.0016815   0.0000213  -0.0012646
            7           8           9          10          11          12
    1   0.0003350  -0.0008657  -0.0000981   0.0015223  -0.0016665  -0.0010864
    2   0.0005950   0.0004617  -0.0001319  -0.0013230  -0.0007832   0.0027605
    3  -0.0000646  -0.0000623   0.0007579   0.0021272  -0.0009081  -0.0014486
           13
    1   0.0014403
    2  -0.0003517
    3   0.0005267
 Max gradient component =       2.761E-03
 RMS gradient           =       1.265E-03
 Gradient time:  CPU 0.66 s  wall 0.66 s

     Step 4	:
        Energy is -321.7187987718
                            Maximum         Tolerance       Converged?
         Gradient           3.09429908e-03	3.00000000e-04	false
         Displacement       4.02777864e-02	1.20000000e-03	false
         Energy change      2.45313922e-04	1.00000000e-06	false


	OPTIMIZATION CYCLE:	5

 Scaling Magnitude of Eigenvalues
 	Minimum: -25.00000000	 Maximum: 25.00000000
 33 Hessian Eigenvalues to form next step
   0.02504625   0.09981048   0.10000001   0.10000035   0.10000978
   0.10520526   0.12003392   0.12951097   0.13202594   0.13290410
   0.13406578   0.17425621   0.17887688   0.18689170   0.19972511
   0.20000000   0.20000000   0.20000000   0.20405844   0.20629261
   0.34157483   0.44829039   0.47298772   0.50000000   0.50000000
   0.50000000   0.50000000   0.50000000   0.50000000   0.50000000
   0.51497106   0.53843869   0.88743366

 Minimum Search taking a RFO step
 Searching for Lambda that minimizes along all modes
	Value of Lambda  -0.00026925
	Norm of Stepsize  0.09121565
	RMS of Stepsize  0.01587861

	Performing Iterative Coordinate Back-Transformation

	  Starting from Previous Position

	  iter:	0	rms: 1.4022493342e-02	maxdev: 4.6182195387e-02
	  iter:	1	rms: 2.1794786978e-04	maxdev: 7.4339151948e-04
	  iter:	2	rms: 2.3170304857e-08	maxdev: 7.1193233895e-08	 Success!

	Finished Iterative Coordinate Back-Transformation
 ----------------------------------------------------------------
             Standard Nuclear Orientation (Angstroms)
    I     Atom           X                Y                Z
 ----------------------------------------------------------------
    1      H       0.6348729688    -0.4616989037     1.4247996388
    2      C       0.6582843264    -0.1114923827     0.4024393299
    3      N       1.5066009245     1.0473533797     0.3127214218
    4      H       1.2682985299     1.8081260343     0.9094810103
    5      H       1.7122061386     1.3512658651    -0.6135597029
    6      C       1.2127309591    -1.2448268489    -0.4791597588
    7      H       0.6160719892    -2.1409345979    -0.3850466342
    8      H       2.2274529632    -1.4553645607    -0.1733927511
    9      H       1.2257493121    -0.9426596270    -1.5205299638
   10      C      -0.7739838588     0.1671223755    -0.0017011398
   11      O      -1.1567600926     1.1045144214    -0.6676873368
   12      O      -1.6263485305    -0.7842724729     0.4431874550
   13      H      -2.5326114981    -0.6495179675     0.1746905725
 ----------------------------------------------------------------
 Molecular Point Group                 C1    NOp =  1
 Largest Abelian Subgroup              C1    NOp =  1
 Nuclear Repulsion Energy =         249.45912381 hartrees
 There are       24 alpha and       24 beta electrons

                       Distance Matrix (Angstroms)
             H (  1)   C (  2)   N (  3)   H (  4)   H (  5)   C (  6)
   C (  2)  1.080932
   N (  3)  2.067333  1.438963
   H (  4)  2.412237  2.077052  0.995834
   H (  5)  2.932984  2.069461  0.996310  1.650887
   C (  6)  2.138287  1.539180  2.442852  3.354390  2.647118
   H (  7)  2.468953  2.177281  3.383061  4.206695  3.667314  1.080680
   H (  8)  2.465340  2.144730  2.649440  3.569729  2.887283  1.080500
   H (  9)  3.042273  2.170407  2.720265  3.670638  2.514225  1.084401
   C ( 10)  2.101237  1.514050  2.464698  2.773817  2.820941  2.483667
   O ( 11)  3.168829  2.432741  2.838655  2.977153  2.880067  3.342070
   O ( 12)  2.486109  2.381983  3.631425  3.913686  4.101608  3.020465
   H ( 13)  3.410426  3.243942  4.383339  4.585504  4.758461  3.848312
             H (  7)   H (  8)   H (  9)   C ( 10)   O ( 11)   O ( 12)
   H (  8)  1.763903
   H (  9)  1.759799  1.755293
   C ( 10)  2.721458  3.416221  2.745431
   O ( 11)  3.708876  4.272026  3.254937  1.211924
   O ( 12)  2.748628  3.960091  3.466372  1.352628  2.240998
   H ( 13)  3.528716  4.840327  4.133398  1.946994  2.383107  0.954758

 
 Applying Cartesian multipole field
    Component          Value
    ---------          -----
     (2,0,0)        1.00000E-11
     (0,2,0)        2.00000E-11
     (0,0,2)       -3.00000E-11
 Nucleus-field energy     = 4.6292879180e-09 hartrees
 Requested basis set is 6-31G
 There are 32 shells and 68 basis functions
 A cutoff of  1.0D-12 yielded    506 shell pairs
 There are      2387 function pairs
 Smallest overlap matrix eigenvalue = 4.65E-03
 Guess MOs from SCF MO coefficient file

 -----------------------------------------------------------------------
  General SCF calculation program by
  Eric Jon Sundstrom, Paul Horn, Yuezhi Mao, Dmitri Zuev, Alec White,
  David Stuck, Shaama M.S., Shane Yost, Joonho Lee, David Small,
  Daniel Levine, Susi Lehtola, Hugh Burton, Evgeny Epifanovsky,
  Bang C. Huynh
 -----------------------------------------------------------------------
 Hartree-Fock
 A restricted SCF calculation will be
 performed using DIIS
 SCF converges when DIIS error is below 1.0e-08
 ---------------------------------------
  Cycle       Energy         DIIS error
 ---------------------------------------
    1    -321.7186221104      5.67e-04  
    2    -321.7189288384      1.67e-04  
    3    -321.7189604342      6.46e-05  
    4    -321.7189635353      1.74e-05  
    5    -321.7189640433      9.27e-06  
    6    -321.7189641420      3.13e-06  
    7    -321.7189641686      1.09e-06  
    8    -321.7189641718      4.64e-07  
    9    -321.7189641724      1.65e-07  
   10    -321.7189641724      6.53e-08  
   11    -321.7189641724      2.04e-08  
   12    -321.7189641724      6.58e-09  Convergence criterion met
 ---------------------------------------
 SCF time:   CPU 1.96s  wall 2.00s 
 SCF   energy in the final basis set =     -321.7189641724
 Total energy in the final basis set =     -321.7189641724
 
 --------------------------------------------------------------
 
                    Orbital Energies (a.u.)
 --------------------------------------------------------------
 
 Alpha MOs
 -- Occupied --
-20.6185 -20.5705 -15.5429 -11.4057 -11.2889 -11.2314  -1.4876  -1.3798
 -1.2078  -1.0315  -0.9210  -0.8137  -0.7193  -0.6964  -0.6838  -0.6384
 -0.6122  -0.5919  -0.5471  -0.5381  -0.5137  -0.4779  -0.4568  -0.3900
 -- Virtual --
  0.1629   0.2159   0.2285   0.2734   0.2849   0.3150   0.3250   0.3340
  0.3845   0.4133   0.4506   0.5064   0.5609   0.7385   0.7645   0.7695
  0.8208   0.8624   0.8770   0.9532   0.9661   1.0022   1.0189   1.0546
  1.1031   1.1233   1.1930   1.1967   1.2145   1.2341   1.2481   1.2562
  1.2726   1.2995   1.3159   1.3565   1.4039   1.4436   1.5248   1.6053
  1.7554   1.8937   2.1192   2.2400
 --------------------------------------------------------------
 
          Ground-State Mulliken Net Atomic Charges

     Atom                 Charge (a.u.)
  ----------------------------------------
      1 H                     0.218150
      2 C                    -0.059075
      3 N                    -0.807990
      4 H                     0.333662
      5 H                     0.335284
      6 C                    -0.449651
      7 H                     0.185145
      8 H                     0.194187
      9 H                     0.162535
     10 C                     0.741302
     11 O                    -0.558327
     12 O                    -0.734560
     13 H                     0.439338
  ----------------------------------------
  Sum of atomic charges =     0.000000

 -----------------------------------------------------------------
                    Cartesian Multipole Moments
 -----------------------------------------------------------------
    Charge (ESU x 10^10)
                 0.0000
    Dipole Moment (Debye)
         X      -0.3402      Y      -1.0868      Z       0.3902
       Tot       1.2038
    Quadrupole Moments (Debye-Ang)
        XX     -35.2578     XY       2.5035     YY     -37.9079
        XZ      -2.6808     YZ       3.4505     ZZ     -36.5919
    Octopole Moments (Debye-Ang^2)
       XXX     -38.7274    XXY      -8.0564    XYY       7.3692
       YYY       5.4596    XXZ      -3.7448    XYZ      -6.2093
       YYZ       3.4857    XZZ       1.4991    YZZ       1.9538
       ZZZ       1.9716
    Hexadecapole Moments (Debye-Ang^3)
      XXXX    -340.8245   XXXY      11.9530   XXYY    -103.5098
      XYYY      15.6980   YYYY    -224.2753   XXXZ     -14.8039
      XXYZ      -0.0581   XYYZ      -1.1433   YYYZ       7.5084
      XXZZ     -83.6173   XYZZ       4.0242   YYZZ     -53.3211
      XZZZ      -0.1740   YZZZ       0.9218   ZZZZ     -90.0369
 -----------------------------------------------------------------
 Calculating analytic gradient of the SCF energy
 Gradient of SCF Energy
            1           2           3           4           5           6
    1  -0.0001540   0.0006776  -0.0001009  -0.0005383   0.0001015  -0.0000153
    2  -0.0009714   0.0034792  -0.0011415   0.0001714  -0.0001480  -0.0016723
    3  -0.0009506   0.0014110   0.0007881  -0.0007486   0.0001766  -0.0013541
            7           8           9          10          11          12
    1   0.0000808  -0.0000456   0.0001226  -0.0000243   0.0000063   0.0000177
    2   0.0003411   0.0003460   0.0000880  -0.0007989  -0.0002488   0.0004904
    3   0.0000216  -0.0001444   0.0002791   0.0013232  -0.0008645   0.0001927
           13
    1  -0.0001280
    2   0.0000648
    3  -0.0001301
 Max gradient component =       3.479E-03
 RMS gradient           =       8.445E-04
 Gradient time:  CPU 0.66 s  wall 0.66 s

     Step 5	:
        Energy is -321.7189641724
                            Maximum         Tolerance       Converged?
         Gradient           1.03454893e-03	3.00000000e-04	false
         Displacement       5.30913228e-02	1.20000000e-03	false
         Energy change      1.65400678e-04	1.00000000e-06	false


	OPTIMIZATION CYCLE:	6

 Scaling Magnitude of Eigenvalues
 	Minimum: -25.00000000	 Maximum: 25.00000000
 33 Hessian Eigenvalues to form next step
   0.01858530   0.09935034   0.10000003   0.10000108   0.10001226
   0.10668500   0.11999727   0.12901153   0.13177314   0.13283140
   0.13419749   0.17382390   0.17933329   0.18739689   0.19978492
   0.20000000   0.20000000   0.20010044   0.20294511   0.21115734
   0.34194872   0.43240387   0.48706713   0.50000000   0.50000000
   0.50000000   0.50000000   0.50000000   0.50000000   0.50166323
   0.51722487   0.54045235   0.88744295

 Minimum Search taking a RFO step
 Searching for Lambda that minimizes along all modes
	Value of Lambda  -0.00006648
	Norm of Stepsize  0.04613312
	RMS of Stepsize  0.00803075

	Performing Iterative Coordinate Back-Transformation

	  Starting from Previous Position

	  iter:	0	rms: 7.1977597563e-03	maxdev: 2.1829767072e-02
	  iter:	1	rms: 5.3240638738e-05	maxdev: 1.7614373014e-04
	  iter:	2	rms: 1.3441069942e-09	maxdev: 5.2207771539e-09	 Success!

	Finished Iterative Coordinate Back-Transformation
 ----------------------------------------------------------------
             Standard Nuclear Orientation (Angstroms)
    I     Atom           X                Y                Z
 ----------------------------------------------------------------
    1      H       0.6340677816    -0.4579359348     1.4249739677
    2      C       0.6570430538    -0.1095536751     0.4005767482
    3      N       1.5038874694     1.0499190810     0.3084170761
    4      H       1.2798804358     1.8071852791     0.9145102783
    5      H       1.7149587750     1.3535600232    -0.6163119234
    6      C       1.2111574296    -1.2450706950    -0.4775277798
    7      H       0.6140259526    -2.1410657536    -0.3807637654
    8      H       2.2262408776    -1.4561203063    -0.1716850306
    9      H       1.2242163000    -0.9463940746    -1.5204303303
   10      C      -0.7761228891     0.1691835244    -0.0027925990
   11      O      -1.1622110159     1.1103266143    -0.6600985457
   12      O      -1.6237618585    -0.7897760709     0.4368500021
   13      H      -2.5308181803    -0.6566432972     0.1705240426
 ----------------------------------------------------------------
 Molecular Point Group                 C1    NOp =  1
 Largest Abelian Subgroup              C1    NOp =  1
 Nuclear Repulsion Energy =         249.43354158 hartrees
 There are       24 alpha and       24 beta electrons

                       Distance Matrix (Angstroms)
             H (  1)   C (  2)   N (  3)   H (  4)   H (  5)   C (  6)
   C (  2)  1.082260
   N (  3)  2.068070  1.438755
   H (  4)  2.410067  2.079890  0.995480
   H (  5)  2.935420  2.072185  0.995928  1.654837
   C (  6)  2.138253  1.538671  2.443436  3.355407  2.650652
   H (  7)  2.468606  2.177013  3.383668  4.208299  3.671505  1.081081
   H (  8)  2.465909  2.145485  2.651891  3.567153  2.890226  1.080961
   H (  9)  3.043398  2.170773  2.721794  3.676171  2.519533  1.084907
   C ( 10)  2.102483  1.514716  2.463939  2.784177  2.825711  2.484909
   O ( 11)  3.167585  2.433686  2.837209  2.988112  2.887765  3.348747
   O ( 12)  2.486826  2.380355  3.630863  3.924730  4.104887  3.013328
   H ( 13)  3.410225  3.242636  4.382946  4.598412  4.763051  3.842994
             H (  7)   H (  8)   H (  9)   C ( 10)   O ( 11)   O ( 12)
   H (  8)  1.764115
   H (  9)  1.760231  1.755844
   C ( 10)  2.722614  3.418234  2.747562
   O ( 11)  3.715454  4.278645  3.265778  1.211142
   O ( 12)  2.739009  3.954346  3.459256  1.353285  2.242034
   H ( 13)  3.521005  4.835895  4.128385  1.947045  2.384366  0.954675

 
 Applying Cartesian multipole field
    Component          Value
    ---------          -----
     (2,0,0)        1.00000E-11
     (0,2,0)        2.00000E-11
     (0,0,2)       -3.00000E-11
 Nucleus-field energy     = 4.6618850358e-09 hartrees
 Requested basis set is 6-31G
 There are 32 shells and 68 basis functions
 A cutoff of  1.0D-12 yielded    506 shell pairs
 There are      2387 function pairs
 Smallest overlap matrix eigenvalue = 4.66E-03
 Guess MOs from SCF MO coefficient file

 -----------------------------------------------------------------------
  General SCF calculation program by
  Eric Jon Sundstrom, Paul Horn, Yuezhi Mao, Dmitri Zuev, Alec White,
  David Stuck, Shaama M.S., Shane Yost, Joonho Lee, David Small,
  Daniel Levine, Susi Lehtola, Hugh Burton, Evgeny Epifanovsky,
  Bang C. Huynh
 -----------------------------------------------------------------------
 Hartree-Fock
 A restricted SCF calculation will be
 performed using DIIS
 SCF converges when DIIS error is below 1.0e-08
 ---------------------------------------
  Cycle       Energy         DIIS error
 ---------------------------------------
    1    -321.7188955054      3.27e-04  
    2    -321.7190006262      9.56e-05  
    3    -321.7190122504      3.27e-05  
    4    -321.7190129888      1.15e-05  
    5    -321.7190131891      4.47e-06  
    6    -321.7190132182      1.75e-06  
    7    -321.7190132242      4.32e-07  
    8    -321.7190132246      1.57e-07  
    9    -321.7190132246      6.61e-08  
   10    -321.7190132246      2.25e-08  
   11    -321.7190132246      9.52e-09  Convergence criterion met
 ---------------------------------------
 SCF time:   CPU 1.79s  wall 2.00s 
 SCF   energy in the final basis set =     -321.7190132246
 Total energy in the final basis set =     -321.7190132246
 
 --------------------------------------------------------------
 
                    Orbital Energies (a.u.)
 --------------------------------------------------------------
 
 Alpha MOs
 -- Occupied --
-20.6181 -20.5705 -15.5421 -11.4053 -11.2890 -11.2313  -1.4873  -1.3799
 -1.2069  -1.0311  -0.9205  -0.8133  -0.7190  -0.6962  -0.6838  -0.6381
 -0.6122  -0.5917  -0.5469  -0.5382  -0.5135  -0.4779  -0.4565  -0.3890
 -- Virtual --
  0.1633   0.2162   0.2285   0.2732   0.2850   0.3153   0.3250   0.3342
  0.3848   0.4135   0.4511   0.5064   0.5611   0.7385   0.7649   0.7695
  0.8211   0.8625   0.8773   0.9542   0.9665   1.0022   1.0185   1.0544
  1.1024   1.1237   1.1920   1.1969   1.2146   1.2345   1.2481   1.2568
  1.2728   1.3001   1.3162   1.3566   1.4051   1.4456   1.5258   1.6056
  1.7546   1.8933   2.1171   2.2402
 --------------------------------------------------------------
 
          Ground-State Mulliken Net Atomic Charges

     Atom                 Charge (a.u.)
  ----------------------------------------
      1 H                     0.217893
      2 C                    -0.057400
      3 N                    -0.811755
      4 H                     0.334818
      5 H                     0.336257
      6 C                    -0.449566
      7 H                     0.185401
      8 H                     0.193698
      9 H                     0.162143
     10 C                     0.741464
     11 O                    -0.557140
     12 O                    -0.734783
     13 H                     0.438969
  ----------------------------------------
  Sum of atomic charges =     0.000000

 -----------------------------------------------------------------
                    Cartesian Multipole Moments
 -----------------------------------------------------------------
    Charge (ESU x 10^10)
                 0.0000
    Dipole Moment (Debye)
         X      -0.3022      Y      -1.0879      Z       0.3993
       Tot       1.1976
    Quadrupole Moments (Debye-Ang)
        XX     -35.1841     XY       2.6042     YY     -37.9691
        XZ      -2.6157     YZ       3.4526     ZZ     -36.4941
    Octopole Moments (Debye-Ang^2)
       XXX     -38.2537    XXY      -8.0086    XYY       7.5609
       YYY       5.3226    XXZ      -3.6067    XYZ      -6.1139
       YYZ       3.5451    XZZ       1.5748    YZZ       2.0221
       ZZZ       2.0490
    Hexadecapole Moments (Debye-Ang^3)
      XXXX    -340.4639   XXXY      12.6399   XXYY    -103.4186
      XYYY      15.9441   YYYY    -225.4694   XXXZ     -14.5594
      XXYZ       0.0712   XYYZ      -1.0602   YYYZ       7.5231
      XXZZ     -83.2129   XYZZ       4.1596   YYZZ     -53.2435
      XZZZ      -0.1424   YZZZ       0.8978   ZZZZ     -89.2140
 -----------------------------------------------------------------
 Calculating analytic gradient of the SCF energy
 Gradient of SCF Energy
            1           2           3           4           5           6
    1  -0.0000852   0.0006457  -0.0008750  -0.0002245   0.0004553  -0.0001638
    2  -0.0013076   0.0026474  -0.0001662   0.0001116  -0.0003948  -0.0012282
    3  -0.0001195   0.0008069   0.0002663  -0.0002866   0.0000778  -0.0008879
            7           8           9          10          11          12
    1  -0.0000479   0.0002563   0.0001124  -0.0008735   0.0004908   0.0002760
    2   0.0000635   0.0001621   0.0001415   0.0005272  -0.0007031  -0.0000047
    3   0.0000624  -0.0001025  -0.0000440   0.0001590  -0.0003416   0.0005831
           13
    1   0.0000334
    2   0.0001514
    3  -0.0001733
 Max gradient component =       2.647E-03
 RMS gradient           =       6.414E-04
 Gradient time:  CPU 0.65 s  wall 0.65 s

     Step 6	:
        Energy is -321.7190132246
                            Maximum         Tolerance       Converged?
         Gradient           1.12794810e-03	3.00000000e-04	false
         Displacement       2.56271145e-02	1.20000000e-03	false
         Energy change      4.90521523e-05	1.00000000e-06	false


	OPTIMIZATION CYCLE:	7

 Scaling Magnitude of Eigenvalues
 	Minimum: -25.00000000	 Maximum: 25.00000000
 33 Hessian Eigenvalues to form next step
   0.01176490   0.08230202   0.09999878   0.10000005   0.10002746
   0.10159347   0.11918122   0.12449923   0.13147978   0.13252732
   0.13319486   0.17691711   0.17871611   0.18759237   0.19898173
   0.19990063   0.20000000   0.20012324   0.20240563   0.22220433
   0.35794761   0.42449398   0.48135881   0.49616388   0.50000000
   0.50000000   0.50000000   0.50000000   0.50000000   0.50291835
   0.52131629   0.54460372   0.89793947

 Minimum Search taking a RFO step
 Searching for Lambda that minimizes along all modes
	Value of Lambda  -0.00006940
	Norm of Stepsize  0.06173263
	RMS of Stepsize  0.01074627

	Performing Iterative Coordinate Back-Transformation

	  Starting from Previous Position

	  iter:	0	rms: 9.7314426050e-03	maxdev: 2.8302331665e-02
	  iter:	1	rms: 8.2189983054e-05	maxdev: 2.6436329975e-04
	  iter:	2	rms: 4.0177323590e-09	maxdev: 1.5567068402e-08	 Success!

	Finished Iterative Coordinate Back-Transformation
 ----------------------------------------------------------------
             Standard Nuclear Orientation (Angstroms)
    I     Atom           X                Y                Z
 ----------------------------------------------------------------
    1      H       0.6339302886    -0.4507686717     1.4246650812
    2      C       0.6556432190    -0.1084561333     0.3974406953
    3      N       1.5020821347     1.0517725636     0.3024554259
    4      H       1.2949093916     1.8039644963     0.9200100491
    5      H       1.7160275505     1.3569656778    -0.6207065568
    6      C       1.2102266858    -1.2450772331    -0.4751991356
    7      H       0.6137792521    -2.1416188157    -0.3753511712
    8      H       2.2251975794    -1.4558769703    -0.1682573855
    9      H       1.2232202240    -0.9518490360    -1.5199802321
   10      C      -0.7787755806     0.1706530004    -0.0033628951
   11      O      -1.1690039389     1.1192409770    -0.6471080223
   12      O      -1.6231238734    -0.7969140844     0.4267835520
   13      H      -2.5315488010    -0.6644210557     0.1648527360
 ----------------------------------------------------------------
 Molecular Point Group                 C1    NOp =  1
 Largest Abelian Subgroup              C1    NOp =  1
 Nuclear Repulsion Energy =         249.37091888 hartrees
 There are       24 alpha and       24 beta electrons

                       Distance Matrix (Angstroms)
             H (  1)   C (  2)   N (  3)   H (  4)   H (  5)   C (  6)
   C (  2)  1.082977
   N (  3)  2.066561  1.439309
   H (  4)  2.403204  2.083049  0.995031
   H (  5)  2.936389  2.075693  0.995562  1.658601
   C (  6)  2.138347  1.536545  2.442426  3.354167  2.654738
   H (  7)  2.469704  2.175479  3.383231  4.208269  3.676308  1.081437
   H (  8)  2.465720  2.144541  2.651938  3.560383  2.894140  1.081118
   H (  9)  3.044549  2.170244  2.722781  3.681467  2.526297  1.085228
   C ( 10)  2.102657  1.515290  2.464185  2.796515  2.830635  2.486574
   O ( 11)  3.163502  2.434679  2.835652  2.999262  2.894929  3.358615
   O ( 12)  2.491963  2.380675  3.633182  3.939893  4.109302  3.007041
[...]
 H          0.131 -0.102 -0.022   -0.008  0.331  0.037   -0.039 -0.351 -0.063
 C         -0.005 -0.074  0.004    0.045 -0.049  0.121    0.068  0.012 -0.092
 O          0.146  0.035  0.086    0.201 -0.059 -0.005    0.055  0.064  0.014
 O         -0.182  0.087  0.018   -0.018 -0.044 -0.046    0.155  0.007  0.047
 H         -0.163  0.291  0.064    0.032 -0.042 -0.235    0.090 -0.044  0.269
 TransDip  -0.066 -0.017 -0.017   -0.099 -0.030 -0.054   -0.115 -0.086 -0.027

 Mode:                 7                      8                      9
 Frequency:       534.93                 631.06                 679.98
 Force Cnst:      0.5810                 0.3030                 0.7216
 Red. Mass:       3.4463                 1.2914                 2.6487
 IR Active:          YES                    YES                    YES
 IR Intens:       26.304                172.747                 29.697
 Raman Active:       YES                    YES                    YES
               X      Y      Z        X      Y      Z        X      Y      Z
 H         -0.270 -0.065  0.064   -0.076  0.070  0.009   -0.080  0.087 -0.146
 C         -0.184 -0.070  0.066   -0.027  0.028 -0.003   -0.078  0.092 -0.147
 N         -0.131 -0.193 -0.066    0.013 -0.004 -0.004    0.027  0.036 -0.000
 H          0.046 -0.132 -0.092    0.129 -0.014  0.035    0.290 -0.053  0.155
 H         -0.337 -0.252 -0.117    0.060 -0.001  0.005    0.465  0.087  0.088
 C          0.015  0.091  0.027   -0.034  0.061  0.030   -0.026  0.043  0.014
 H          0.260 -0.095 -0.162   -0.032  0.058  0.017   -0.018  0.051  0.128
 H          0.055  0.364  0.079   -0.026  0.060  0.000   -0.057  0.104  0.156
 H          0.050  0.263  0.070   -0.061  0.081  0.035    0.072 -0.151 -0.034
 C         -0.023  0.093 -0.028   -0.001 -0.053 -0.064   -0.090 -0.058 -0.047
 O          0.063  0.128 -0.042    0.054 -0.000  0.008    0.168  0.067  0.028
 O          0.200 -0.025  0.055   -0.008 -0.062 -0.039   -0.086 -0.130  0.106
 H          0.135 -0.407  0.089   -0.180  0.355  0.875   -0.036 -0.545 -0.336
 TransDip  -0.141 -0.081  0.021   -0.078  0.203  0.361    0.039 -0.048 -0.163

 Mode:                10                     11                     12
 Frequency:       775.94                 799.63                 870.08
 Force Cnst:      0.6124                 1.5267                 1.1533
 Red. Mass:       1.7264                 4.0526                 2.5857
 IR Active:          YES                    YES                    YES
 IR Intens:      343.194                 53.324                 18.585
 Raman Active:       YES                    YES                    YES
               X      Y      Z        X      Y      Z        X      Y      Z
 H         -0.017 -0.005 -0.002    0.306 -0.141 -0.006    0.052 -0.135 -0.234
 C         -0.005 -0.016 -0.001    0.024  0.005  0.035   -0.127  0.045 -0.182
 N          0.194  0.006  0.036   -0.048  0.058 -0.002    0.039 -0.061  0.011
 H         -0.610  0.112 -0.238    0.205  0.048  0.058   -0.307 -0.100 -0.016
 H         -0.643  0.161 -0.056    0.296 -0.046  0.021   -0.066  0.115  0.050
 C         -0.003 -0.001 -0.000    0.090 -0.154 -0.096   -0.068  0.080  0.010
 H          0.010 -0.011 -0.007    0.119 -0.168 -0.044    0.083  0.002  0.173
 H         -0.005  0.018  0.015    0.068 -0.082  0.048   -0.140  0.386  0.450
 H          0.019 -0.004 -0.001    0.181 -0.252 -0.115    0.246 -0.270 -0.069
 C         -0.072  0.013 -0.015   -0.158  0.211  0.306    0.042  0.018  0.193
 O          0.008  0.058 -0.029    0.025  0.075 -0.146    0.031 -0.126  0.014
 O         -0.034 -0.064  0.021   -0.013 -0.122 -0.068    0.052  0.051 -0.059
 H         -0.080 -0.205  0.108   -0.169 -0.135  0.525    0.093  0.330 -0.048
 TransDip  -0.585 -0.039 -0.088    0.035  0.028  0.230   -0.106  0.077  0.044

 Mode:                13                     14                     15
 Frequency:      1013.09                1113.39                1189.90
 Force Cnst:      1.5135                 0.9082                 1.5101
 Red. Mass:       2.5029                 1.2435                 1.8103
 IR Active:          YES                    YES                    YES
 IR Intens:        3.582                  1.257                 39.373
 Raman Active:       YES                    YES                    YES
               X      Y      Z        X      Y      Z        X      Y      Z
 H          0.342 -0.209 -0.118    0.067  0.337  0.057   -0.298  0.425  0.033
 C          0.214 -0.061 -0.074    0.030 -0.050 -0.065   -0.072  0.153 -0.052
 N         -0.084 -0.128 -0.012    0.006 -0.005 -0.040   -0.014 -0.093  0.022
 H         -0.215 -0.242  0.070   -0.324 -0.260  0.164   -0.105 -0.061 -0.031
 H         -0.020 -0.021  0.044    0.299  0.328  0.126   -0.134 -0.031  0.024
 C          0.015  0.185  0.084   -0.033 -0.026  0.088    0.141 -0.026 -0.005
 H         -0.321  0.458  0.426    0.123 -0.175 -0.306   -0.253  0.239  0.047
 H         -0.044 -0.198  0.009    0.064  0.092 -0.154    0.155 -0.504 -0.400
 H         -0.092 -0.129  0.007   -0.140  0.456  0.205   -0.245  0.027 -0.007
 C         -0.018  0.044  0.015   -0.009  0.021  0.039   -0.042 -0.003  0.063
 O         -0.026  0.050 -0.041   -0.001  0.001 -0.012    0.027 -0.038  0.012
 O         -0.033 -0.034  0.002   -0.000 -0.003 -0.006    0.019  0.020 -0.014
 H         -0.060 -0.133  0.044   -0.003 -0.017 -0.004    0.019  0.027 -0.009
 TransDip   0.045  0.007  0.040    0.005  0.031  0.017   -0.188  0.069 -0.017

 Mode:                16                     17                     18
 Frequency:      1230.00                1286.77                1390.35
 Force Cnst:      2.2865                 1.8681                 2.0338
 Red. Mass:       2.5652                 1.9150                 1.7857
 IR Active:          YES                    YES                    YES
 IR Intens:      316.346                  6.962                  2.436
 Raman Active:       YES                    YES                    YES
               X      Y      Z        X      Y      Z        X      Y      Z
 H         -0.124  0.209  0.038    0.423  0.445  0.184    0.087  0.124  0.211
 C          0.038  0.110  0.010    0.081  0.164  0.096   -0.125 -0.100  0.131
 N         -0.045 -0.070  0.014   -0.039 -0.104  0.002    0.044  0.024 -0.085
 H         -0.114 -0.063 -0.014   -0.251 -0.205  0.060   -0.260 -0.252  0.160
 H         -0.120 -0.064  0.007    0.027  0.069  0.083    0.346  0.414  0.101
 C         -0.020 -0.038 -0.036   -0.046 -0.033 -0.093    0.056  0.058 -0.068
 H          0.079 -0.102 -0.066    0.160 -0.159  0.003   -0.105  0.195  0.251
 H         -0.011  0.141  0.064   -0.076  0.224  0.215   -0.051 -0.208  0.093
 H          0.081 -0.009 -0.028    0.260 -0.205 -0.133    0.001 -0.294 -0.150
 C          0.176  0.096 -0.016   -0.038 -0.061 -0.054   -0.028 -0.024 -0.018
 O         -0.029  0.071 -0.038    0.005 -0.009  0.019   -0.005  0.030 -0.010
 O         -0.075 -0.192  0.079    0.002  0.055 -0.017    0.031 -0.020  0.017
 H          0.158  0.769 -0.339   -0.083 -0.289  0.138    0.112  0.321 -0.124
 TransDip   0.389  0.399 -0.121   -0.039 -0.048  0.058   -0.048 -0.013  0.006

 Mode:                19                     20                     21
 Frequency:      1429.59                1489.89                1543.61
 Force Cnst:      1.8916                 2.2625                 2.0448
 Red. Mass:       1.5709                 1.7299                 1.4566
 IR Active:          YES                    YES                    YES
 IR Intens:       17.845                 18.744                  5.351
 Raman Active:       YES                    YES                    YES
               X      Y      Z        X      Y      Z        X      Y      Z
 H          0.675 -0.294 -0.129   -0.305  0.682  0.191    0.688  0.513  0.120
 C         -0.031  0.063 -0.019    0.103 -0.118 -0.057   -0.108 -0.088 -0.057
 N         -0.001 -0.014  0.026   -0.010  0.022  0.049   -0.001  0.009  0.057
 H          0.061  0.065 -0.045    0.196  0.159 -0.060    0.180  0.188 -0.090
 H         -0.058 -0.068 -0.004   -0.123 -0.214 -0.052   -0.113 -0.141 -0.021
 C          0.006 -0.029  0.052   -0.046  0.050 -0.025    0.034 -0.003 -0.007
 H          0.007 -0.056 -0.127    0.124 -0.055  0.056   -0.154  0.129  0.027
 H          0.055 -0.043 -0.119   -0.077  0.015  0.069    0.003  0.050  0.088
 H         -0.069  0.138  0.088    0.144 -0.144 -0.071   -0.139  0.038  0.002
 C         -0.140 -0.103 -0.019   -0.138 -0.058  0.041    0.097  0.043 -0.019
 O          0.006  0.053 -0.018    0.012  0.024 -0.015   -0.015 -0.003  0.001
 O          0.065 -0.004  0.019    0.052  0.004  0.004   -0.027 -0.009  0.001
 H          0.182  0.483 -0.196    0.126  0.310 -0.137   -0.059 -0.147  0.056
 TransDip  -0.115 -0.071 -0.003   -0.117 -0.073  0.014    0.065  0.027 -0.022

 Mode:                22                     23                     24
 Frequency:      1576.05                1652.28                1656.49
 Force Cnst:      1.7940                 1.6857                 1.7044
 Red. Mass:       1.2258                 1.0480                 1.0542
 IR Active:          YES                    YES                    YES
 IR Intens:        7.886                 10.163                  7.679
 Raman Active:       YES                    YES                    YES
               X      Y      Z        X      Y      Z        X      Y      Z
 H         -0.137 -0.014  0.003   -0.031  0.026  0.031    0.062  0.015  0.003
 C          0.031  0.000  0.005    0.001 -0.015  0.015   -0.030 -0.009 -0.004
 N         -0.001 -0.000 -0.004    0.002  0.004 -0.004    0.001 -0.002  0.002
 H         -0.006  0.001 -0.007   -0.014 -0.016  0.014    0.016  0.026 -0.023
 H          0.015  0.026  0.007    0.021  0.006 -0.000    0.008  0.026  0.011
 C          0.043 -0.099 -0.069   -0.004 -0.024  0.050   -0.050 -0.018 -0.015
 H         -0.395  0.270  0.337   -0.444  0.241 -0.311    0.061 -0.001  0.540
 H          0.010  0.455  0.368    0.232  0.495 -0.382    0.087 -0.069 -0.427
 H         -0.181  0.478  0.094    0.270 -0.345 -0.058    0.622  0.324  0.089
 C         -0.038 -0.024  0.006   -0.008 -0.001 -0.001    0.010  0.010 -0.002
 O          0.003  0.007 -0.002    0.001 -0.001  0.000   -0.000 -0.003  0.001
 O          0.013  0.005  0.000    0.003  0.001  0.001   -0.003 -0.002 -0.000
 H          0.025  0.056 -0.026    0.007  0.016 -0.007   -0.004 -0.005  0.006
 TransDip  -0.061  0.027  0.060   -0.016  0.062 -0.079    0.077  0.043  0.008

 Mode:                25                     26                     27
 Frequency:      1858.23                1913.17                3201.22
 Force Cnst:      2.2282                20.5071                 6.2865
 Red. Mass:       1.0952                 9.5093                 1.0412
 IR Active:          YES                    YES                    YES
 IR Intens:       35.339                338.478                 21.787
 Raman Active:       YES                    YES                    YES
               X      Y      Z        X      Y      Z        X      Y      Z
 H         -0.043 -0.023 -0.001    0.234 -0.042  0.011    0.000  0.027 -0.081
 C          0.017 -0.007  0.005    0.059 -0.033  0.033   -0.000 -0.001  0.007
 N         -0.029 -0.073  0.011   -0.010 -0.015  0.004   -0.000  0.000 -0.000
 H          0.214  0.453 -0.484   -0.009  0.061 -0.075   -0.001 -0.002  0.002
 H          0.077  0.652  0.269   -0.040  0.078  0.030   -0.000 -0.004  0.000
 C         -0.003  0.004  0.003    0.005 -0.008 -0.002    0.013 -0.018 -0.050
 H          0.007 -0.009 -0.037    0.013 -0.011 -0.009    0.233  0.337 -0.060
 H         -0.005  0.004  0.005    0.001  0.014  0.060   -0.374  0.076 -0.133
 H         -0.011 -0.033 -0.002   -0.047  0.031  0.004   -0.007 -0.217  0.780
 C          0.005 -0.008  0.006   -0.314  0.554 -0.322   -0.001 -0.000 -0.000
 O         -0.003  0.006 -0.004    0.155 -0.351  0.194    0.000 -0.000  0.000
 O         -0.001  0.001 -0.000    0.024 -0.054  0.030    0.000  0.000  0.000
 H         -0.002 -0.006  0.002    0.115  0.413 -0.173    0.000  0.000 -0.000
 TransDip   0.020  0.180 -0.058   -0.128  0.523 -0.238    0.051 -0.065 -0.125

 Mode:                28                     29                     30
 Frequency:      3240.60                3283.37                3313.31
 Force Cnst:      6.7081                 6.9517                 7.1341
 Red. Mass:       1.0842                 1.0945                 1.1030
 IR Active:          YES                    YES                    YES
 IR Intens:        9.595                 29.489                 16.417
 Raman Active:       YES                    YES                    YES
               X      Y      Z        X      Y      Z        X      Y      Z
 H          0.003 -0.284  0.922   -0.000 -0.065  0.222    0.001  0.000  0.002
 C          0.000  0.024 -0.077   -0.000  0.006 -0.020   -0.002 -0.000 -0.000
 N         -0.000 -0.000  0.002    0.000 -0.000  0.001    0.000  0.000  0.000
 H          0.003 -0.001 -0.006    0.000 -0.000 -0.001    0.002 -0.001 -0.001
 H         -0.004  0.002 -0.014   -0.002 -0.002 -0.005   -0.002  0.001  0.001
 C          0.004 -0.016  0.010   -0.015  0.059 -0.061   -0.086 -0.034 -0.012
 H          0.103  0.140 -0.018   -0.334 -0.468  0.050    0.377  0.564 -0.083
 H         -0.158  0.028 -0.047    0.510 -0.090  0.145    0.675 -0.147  0.217
 H         -0.000  0.017 -0.057   -0.010 -0.139  0.545   -0.020 -0.010  0.007
 C          0.000  0.001 -0.001    0.001  0.001 -0.000    0.000 -0.001 -0.000
 O          0.000 -0.001  0.000    0.000 -0.000  0.000    0.000  0.000 -0.000
 O         -0.000 -0.000  0.000   -0.000 -0.000 -0.000   -0.000  0.000  0.000
 H          0.001 -0.002  0.001    0.000 -0.001 -0.000   -0.001  0.001 -0.000
 TransDip   0.033  0.010 -0.093   -0.023  0.114 -0.129   -0.122 -0.041 -0.021

 Mode:                31                     32                     33
 Frequency:      3784.13                3896.96                3989.94
 Force Cnst:      8.8301                 9.8306                 9.9941
 Red. Mass:       1.0466                 1.0987                 1.0655
 IR Active:          YES                    YES                    YES
 IR Intens:        5.339                 11.080                 93.402
 Raman Active:       YES                    YES                    YES
               X      Y      Z        X      Y      Z        X      Y      Z
 H          0.001 -0.002  0.007   -0.002 -0.005  0.013    0.001  0.001 -0.001
 C         -0.003 -0.001 -0.001    0.000  0.000 -0.002    0.001 -0.000  0.000
 N          0.003  0.052 -0.016    0.015 -0.022 -0.079    0.000  0.000  0.000
 H          0.100 -0.482 -0.467   -0.120  0.541  0.478   -0.000 -0.001 -0.001
 H         -0.113 -0.227  0.687   -0.087 -0.237  0.627   -0.001  0.000 -0.000
 C          0.000  0.000 -0.000   -0.000  0.000  0.000    0.000  0.000  0.000
 H         -0.001 -0.001  0.001    0.000  0.001  0.000   -0.000  0.001 -0.000
 H         -0.000  0.000 -0.000    0.000  0.000 -0.000    0.001 -0.000 -0.000
 H         -0.000  0.001  0.000   -0.000  0.001  0.000   -0.000  0.000 -0.000
 C          0.000  0.000 -0.000   -0.000  0.000 -0.000   -0.002  0.001 -0.001
 O         -0.000 -0.000  0.000   -0.000 -0.000  0.000    0.000  0.000 -0.000
 O         -0.000 -0.000  0.000   -0.000  0.000 -0.000   -0.060  0.007 -0.014
 H         -0.001  0.000 -0.000    0.001 -0.000  0.000    0.960 -0.130  0.240
 TransDip  -0.012 -0.070  0.019   -0.018  0.020  0.103    0.305  0.039  0.034

 STANDARD THERMODYNAMIC QUANTITIES AT   298.15 K  AND     1.00 ATM

   This Molecule has  0 Imaginary Frequencies
   Zero point vibrational energy:       72.755 kcal/mol

   Atom    1 Element H  Has Mass    1.00783
   Atom    2 Element C  Has Mass   12.00000
   Atom    3 Element N  Has Mass   14.00307
   Atom    4 Element H  Has Mass    1.00783
   Atom    5 Element H  Has Mass    1.00783
   Atom    6 Element C  Has Mass   12.00000
   Atom    7 Element H  Has Mass    1.00783
   Atom    8 Element H  Has Mass    1.00783
   Atom    9 Element H  Has Mass    1.00783
   Atom   10 Element C  Has Mass   12.00000
   Atom   11 Element O  Has Mass   15.99491
   Atom   12 Element O  Has Mass   15.99491
   Atom   13 Element H  Has Mass    1.00783
   Molecular Mass:    89.047700 amu
   Principal axes and moments of inertia in amu*Bohr^2:
                             1           2           3
    Eigenvalues --      356.34163   575.14638   806.20139
          X               0.99973    -0.01718    -0.01576
          Y               0.01760     0.99948     0.02696
          Z               0.01528    -0.02723     0.99951
   Rotational Symmetry Number is   1
   The Molecule is an Asymmetric Top
   Translational Enthalpy:        0.889 kcal/mol
   Rotational Enthalpy:           0.889 kcal/mol
   Vibrational Enthalpy:         75.132 kcal/mol
   gas constant (RT):             0.592 kcal/mol
   Translational Entropy:        39.372  cal/mol.K
   Rotational Entropy:           26.604  cal/mol.K
   Vibrational Entropy:          14.070  cal/mol.K

   Total Enthalpy:               77.501 kcal/mol
   Total Entropy:                80.046  cal/mol.K

 ----------------------------------------------------------------
             Standard Nuclear Orientation (Angstroms)
    I     Atom           X                Y                Z
 ----------------------------------------------------------------
    1      H       0.6492967040    -0.4177442550     1.4285615490
    2      C       0.6621943366    -0.1035567272     0.3924413870
    3      N       1.5138307012     1.0524071536     0.2712499951
    4      H       1.3440160923     1.7869512607     0.9217277840
    5      H       1.6375069275     1.3946253628    -0.6564275634
    6      C       1.2051292535    -1.2612404148    -0.4568445818
    7      H       0.6015268848    -2.1502131718    -0.3409400437
    8      H       2.2183602133    -1.4724326775    -0.1467338485
    9      H       1.2213935328    -0.9885432351    -1.5068293162
   10      C      -0.7756571275     0.1828126317     0.0102824912
   11      O      -1.1838939252     1.1846092980    -0.5349300109
   12      O      -1.6045819413    -0.8341936552     0.3422344381
   13      H      -2.5165575204    -0.6858668555     0.1024498609
 ----------------------------------------------------------------
 Molecular Point Group                 C1    NOp =  1
 Largest Abelian Subgroup              C1    NOp =  1
 Nuclear Repulsion Energy =         249.45308035 hartrees
 There are       24 alpha and       24 beta electrons

Z-matrix Print:
$molecule
0 1
C 
O  1 1.211408
O  1 1.353370 2 121.696630
H  3 0.954566 1 114.002788 2 0.430440 0
C  1 1.515081 2 126.131895 3 179.619834 0
H  5 1.082786 1 106.553258 2 130.094682 0
N  5 1.440911 1 112.834045 2 10.903894 0
H  7 0.995748 5 115.852854 1 68.370106 0
H  7 0.996491 5 115.287714 1 -65.338184 0
C  5 1.535023 1 109.795425 2 -112.774694 0
H  10 1.080466 5 108.681392 1 -178.080964 0
H  10 1.080760 5 111.313551 1 -57.528735 0
H  10 1.084941 5 110.559957 1 63.264665 0
$end

 -----------------------------------------------------------------------
                  END OF GEOMETRY OPTIMIZER USING LIBOPT3               
 -----------------------------------------------------------------------
 Total job time:  51.02s(wall), 51.07s(cpu) 
 Wed Feb  8 13:04:11 2023

        *************************************************************
        *                                                           *
        *  Thank you very much for using Q-Chem.  Have a nice day.  *
        *                                                           *
        *************************************************************


