
Running Job 1 of 1 input
qchem input_10403.0 /aimm/scratch/qchem10403/ 0
/home/epif/aimm/qcprog.exe_s input_10403.0 /aimm/scratch/qchem10403/
8388608
                  Welcome to Q-Chem
     A Quantum Leap Into The Future Of Chemistry


 Q-Chem 6.0, Q-Chem, Inc., Pleasanton, CA (2022)

 E. Epifanovsky,  A. T. B. Gilbert,  Xintian Feng,  Joonho Lee,  Yuezhi Mao,  
 N. Mardirossian,  P. Pokhilko,  A. White,  M. Wormit,  M. P. Coons,  
 A. L. Dempwolff,  Zhengting Gan,  D. Hait,  P. R. Horn,  L. D. Jacobson,  
 I. Kaliman,  J. Kussmann,  A. W. Lange,  Ka Un Lao,  D. S. Levine,  Jie Liu,  
 S. C. McKenzie,  A. F. Morrison,  K. Nanda,  F. Plasser,  D. R. Rehn,  
 M. L. Vidal,  Zhi-Qiang You,  Ying Zhu,  B. Alam,  B. Albrecht,  
 A. Aldossary,  E. Alguire,  J. H. Andersen,  V. Athavale,  D. Barton,  
 K. Begam,  A. Behn,  N. Bellonzi,  Y. A. Bernard,  E. J. Berquist,  
 H. Burton,  A. Carreras,  K. Carter-Fenk,  Romit Chakraborty,  
 Chandrima Chakravarty,  Junhan Chen,  A. D. Chien,  K. D. Closser,  
 V. Cofer-Shabica,  L. Cunha,  S. Dasgupta,  Jia Deng,  M. de Wergifosse,  
 M. Diedenhofen,  Hainam Do,  S. Ehlert,  Po-Tung Fang,  S. Fatehi,  
 Qingguo Feng,  T. Friedhoff,  B. Ganoe,  J. Gayvert,  Qinghui Ge,  
 G. Gidofalvi,  M. Goldey,  J. Gomes,  C. Gonzalez-Espinoza,  S. Gulania,  
 A. Gunina,  J. A. Gyamfi,  M. W. D. Hanson-Heine,  P. H. P. Harbach,  
 A. W. Hauser,  M. F. Herbst,  M. Hernandez Vera,  M. Hodecker,  
 Z. C. Holden,  S. Houck,  Xunkun Huang,  Kerwin Hui,  B. C. Huynh,  
 K. Ikeda,  M. Ivanov,  Hyunjun Ji,  Zuxin Jin,  Hanjie Jiang,  B. Kaduk,  
 S. Kaehler,  R. Kang,  K. Khistyaev,  Jaehoon Kim,  Yongbin Kim,  
 P. Klunzinger,  Z. Koczor-Benda,  Joong Hoon Koh,  D. Kosenkov,  
 Saikiran Kotaru,  L. Koulias,  T. Kowalczyk,  C. M. Krauter,  K. Kue,  
 A. Kunitsa,  T. Kus,  A. Landau,  K. V. Lawler,  D. Lefrancois,  S. Lehtola,  
 Rain Li,  Shaozhi Li,  Yi-Pei Li,  Jiashu Liang,  M. Liebenthal,  
 Hung-Hsuan Lin,  You-Sheng Lin,  Fenglai Liu,  Kuan-Yu Liu,  
 M. Loipersberger,  A. Luenser,  C. Malbon,  A. Manjanath,  P. Manohar,  
 E. Mansoor,  S. F. Manzer,  Shan-Ping Mao,  A. V. Marenich,  T. Markovich,  
 S. Mason,  F. Matz,  S. A. Maurer,  P. F. McLaughlin,  M. F. S. J. Menger,  
 J.-M. Mewes,  S. A. Mewes,  P. Morgante,  Mohammad Mostafanejad,  
 J. W. Mullinax,  K. J. Oosterbaan,  G. Paran,  V. Parravicini,  
 Alexander C. Paul,  Suranjan K. Paul,  F. Pavosevic,  Zheng Pei,  S. Prager,  
 E. I. Proynov,  E. Ramos,  B. Rana,  A. E. Rask,  A. Rettig,  R. M. Richard,  
 F. Rob,  E. Rossomme,  T. Scheele,  M. Scheurer,  M. Schneider,  
 P. E. Schneider,  N. Sergueev,  S. M. Sharada,  Hengyuan Shen,  
 W. Skomorowski,  D. W. Small,  C. J. Stein,  Yingli Su,  Yu-Chuan Su,  
 E. J. Sundstrom,  Zhen Tao,  J. Thirman,  Hung-Yi Tsai,  T. Tsuchimochi,  
 N. M. Tubman,  C. Utku,  S. P. Veccham,  O. Vydrov,  J. Wenzel,  
 Jonathan Wong,  J. Witte,  A. Yamada,  Chou-Hsun Yang,  Kun Yao,  
 S. Yeganeh,  S. R. Yost,  A. Zech,  F. Zeller,  Igor Ying Zhang,  
 Xing Zhang,  Yu Zhang,  D. Zuev,  A. Aspuru-Guzik,  A. T. Bell,  
 N. A. Besley,  K. B. Bravaya,  B. R. Brooks,  D. Casanova,  Jeng-Da Chai,  
 Hsing-Ta Chen,  S. Coriani,  C. J. Cramer,  A. E. DePrince, III,  
 R. A. DiStasio Jr.,  A. Dreuw,  B. D. Dunietz,  T. R. Furlani,  
 W. A. Goddard III,  S. Grimme,  S. Hammes-Schiffer,  T. Head-Gordon,  
 W. J. Hehre,  Chao-Ping Hsu,  T.-C. Jagau,  Yousung Jung,  A. Klamt,  
 Jing Kong,  D. S. Lambrecht,  Xiangyuan Li,  WanZhen Liang,  N. J. Mayhall,  
 C. W. McCurdy,  J. B. Neaton,  T. Neudecker,  C. Ochsenfeld,  
 J. A. Parkhill,  R. Peverati,  V. A. Rassolov,  Haisheng Ren,  Yihan Shao,  
 L. V. Slipchenko,  R. P. Steele,  J. E. Subotnik,  A. J. W. Thom,  
 A. Tkatchenko,  D. G. Truhlar,  T. Van Voorhis,  Fan Wang,  
 T. A. Wesolowski,  K. B. Whaley,  H. L. Woodcock III,  P. M. Zimmerman,  
 S. Faraji,  P. M. W. Gill,  M. Head-Gordon,  J. M. Herbert,  A. I. Krylov

 Contributors to earlier versions of Q-Chem not listed above: 
 R. D. Adamson,  B. Austin,  R. Baer,  J. Baker,  G. J. O. Beran,  
 K. Brandhorst,  S. T. Brown,  E. F. C. Byrd,  Arup K. Chakraborty,  
 G. K. L. Chan,  Chun-Min Chang,  Yunqing Chen,  C.-L. Cheng,  
 Siu Hung Chien,  D. M. Chipman,  D. L. Crittenden,  H. Dachsel,  
 R. J. Doerksen,  A. D. Dutoi,  R. G. Edgar,  J. Fosso-Tande,  
 L. Fusti-Molnar,  D. Ghosh,  A. Ghysels,  A. Golubeva-Zadorozhnaya,  
 J. Gonthier,  M. S. Gordon,  S. R. Gwaltney,  G. Hawkins,  J. E. Herr,  
 A. Heyden,  S. Hirata,  E. G. Hohenstein,  G. Kedziora,  F. J. Keil,  
 C. Kelley,  Jihan Kim,  R. A. King,  R. Z. Khaliullin,  P. P. Korambath,  
 W. Kurlancheek,  A. Laurent,  A. M. Lee,  M. S. Lee,  S. V. Levchenko,  
 Ching Yeh Lin,  D. Liotard,  E. Livshits,  R. C. Lochan,  I. Lotan,  
 L. A. Martinez-Martinez,  P. E. Maslen,  N. Nair,  D. P. O'Neill,  
 D. Neuhauser,  E. Neuscamman,  C. M. Oana,  R. Olivares-Amaya,  R. Olson,  
 T. M. Perrine,  B. Peters,  P. A. Pieniazek,  A. Prociuk,  Y. M. Rhee,  
 J. Ritchie,  M. A. Rohrdanz,  E. Rosta,  N. J. Russ,  H. F. Schaefer III,  
 M. W. Schmidt,  N. E. Schultz,  S. Sharma,  N. Shenvi,  C. D. Sherrill,  
 A. C. Simmonett,  A. Sodt,  T. Stein,  D. Stuck,  K. S. Thanthiriwatte,  
 V. Vanovschi,  L. Vogt,  Tao Wang,  A. Warshel,  M. A. Watson,  
 C. F. Williams,  Q. Wu,  X. Xu,  Jun Yang,  W. Zhang,  Yan Zhao

   Please cite Q-Chem as follows:
  "Software for the frontiers of quantum chemistry:
   An overview of developments in the Q-Chem 5 package"
   J. Chem. Phys. 155, 084801 (2021)
   https://doi.org/10.1063/5.0055522 (open access)

 Q-Chem 6.0.0 for Intel X86 EM64T Linux

 Parts of Q-Chem use Armadillo 9.900.5 (Nocturnal Misbehaviour).
 http://arma.sourceforge.net/

 Q-Chem begins on Wed Feb  8 13:15:28 2023  

 Host: iqmol
0

     Scratch files written to /aimm/scratch/qchem10403//
 Jul222 |scratch|qcdevops|jenkins|workspace|build_RNUM 6466   
 Processing $rem in /opt/qchem/qc600/config/preferences:
 Processing $rem in /home/epif/.qchemrc:

 Checking the input file for inconsistencies... 	...done.

--------------------------------------------------------------
User input:
--------------------------------------------------------------
$molecule
0 1
C    1.9658793   -0.1276090   -0.0000407
C    0.5687377    0.5227970   -0.0000472
C   -0.5687319   -0.5227810   -0.0000360
C   -1.9658734    0.1276253   -0.0000424
H    2.7415018    0.6325126   -0.0000197
H    2.1002934   -0.7502484   -0.8796035
H    2.1002619   -0.7502619    0.8795171
H    0.4690106    1.1614923   -0.8758186
H    0.4690265    1.1614206    0.8757795
H   -0.4690203   -1.1613855    0.8758044
H   -0.4690052   -1.1614951   -0.8757938
H   -2.1002569    0.7502934    0.8795046
H   -2.7414960   -0.6324962   -0.0000089
H   -2.1002861    0.7502495   -0.8796161
$end

$rem
BASIS  =  STO-3G
GUI  =  2
JOB_TYPE  =  PES_Scan
METHOD  =  HF
$end


$scan
tors 1 2 3 4 -180 180 15
$end

--------------------------------------------------------------
 Atom   4: ( -1.9660496583,  0.1249186546, -0.0000047500)
         ->( -1.9660496817,  0.1249185369, -0.0000046559)
 Atom   3: ( -0.5680167030, -0.5235692650, -0.0000047426)
         ->( -0.5680166267, -0.5235690826, -0.0000047633)
 Atom  13: ( -2.7406281570, -0.6362667776,  0.0000206365)
         ->( -2.7406280802, -0.6362669947,  0.0000244576)
 Atom  14: ( -2.1013166464,  0.7473669176, -0.8795720095)
         ->( -2.1013185349,  0.7473636993, -0.8795738965)
 Atom  12: ( -2.1012879509,  0.7473925592,  0.8795486909)
         ->( -2.1012866092,  0.7473955410,  0.8795467033)
 Atom  11: ( -0.4674131533, -1.1621367650, -0.8757691596)
         ->( -0.4674131452, -1.1621360016, -0.8757695464)
 Atom  10: ( -0.4674288461, -1.1620454061,  0.8758290414)
         ->( -0.4674287013, -1.1620461033,  0.8758285528)
 ----------------------------------------------------------------
             Standard Nuclear Orientation (Angstroms)
    I     Atom           X                Y                Z
 ----------------------------------------------------------------
    1      C       1.9660496817    -0.1249185369    -0.0000046559
    2      C       0.5680166267     0.5235690826    -0.0000047633
    3      C      -0.5680166267    -0.5235690826    -0.0000047633
    4      C      -1.9660496817     0.1249185369    -0.0000046559
    5      H       2.7406280802     0.6362669947     0.0000244576
    6      H       2.1013185349    -0.7473636993    -0.8795738965
    7      H       2.1012866092    -0.7473955410     0.8795467033
    8      H       0.4674131452     1.1621360016    -0.8757695464
    9      H       0.4674287013     1.1620461033     0.8758285528
   10      H      -0.4674287013    -1.1620461033     0.8758285528
   11      H      -0.4674131452    -1.1621360016    -0.8757695464
   12      H      -2.1012866092     0.7473955410     0.8795467033
   13      H      -2.7406280802    -0.6362669947     0.0000244576
   14      H      -2.1013185349     0.7473636993    -0.8795738965
 ----------------------------------------------------------------
 Molecular Point Group                 C2    NOp =  2
 Largest Abelian Subgroup              C2    NOp =  2
 Nuclear Repulsion Energy =         130.24174186 hartrees
 There are       17 alpha and       17 beta electrons
 Requested basis set is STO-3G
 There are 18 shells and 30 basis functions

 Total QAlloc Memory Limit   8000 MB
 Mega-Array Size       188 MB
 MEM_STATIC part       192 MB

A total of 1 constraints
  
            1
    1   3.0100000
    2   1.0100000
    3   2.0100000
    4   3.0100000
    5   4.0100000
    6-180.0000000
    7 180.0000000
    8  15.0000000
    9   0.0000000
   10   0.0000000

                       Distance Matrix (Angstroms)
             C (  1)   C (  2)   C (  3)   C (  4)   H (  5)   H (  6)
   C (  2)  1.541114
   C (  3)  2.565232  1.545015
   C (  4)  3.940028  2.565232  1.541114
   H (  5)  1.085990  2.175532  3.506045  4.734374
   H (  6)  1.085992  2.177137  2.819411  4.251823  1.759785
   H (  7)  1.085991  2.177126  2.819377  4.251796  1.759784  1.759121
   H (  8)  2.160876  1.088509  2.163488  2.786490  2.492200  2.513136
   H (  9)  2.160839  1.088510  2.163453  2.786491  2.492170  3.065433
   H ( 10)  2.786491  2.163453  1.088510  2.160839  3.780554  3.138768
   H ( 11)  2.786490  2.163488  1.088509  2.160876  3.780582  2.602006
   H ( 12)  4.251796  2.819377  2.177126  1.085991  4.922403  4.794862
   H ( 13)  4.734374  3.506045  2.175532  1.085990  5.627034  4.922447
   H ( 14)  4.251823  2.819411  2.177137  1.085992  4.922447  4.460535
             H (  7)   H (  8)   H (  9)   H ( 10)   H ( 11)   H ( 12)
   H (  8)  3.065451
   H (  9)  2.513060  1.751598
   H ( 10)  2.601970  3.056771  2.505067
   H ( 11)  3.138688  2.505223  3.056771  1.751598
   H ( 12)  4.460496  3.138688  2.601970  2.513060  3.065451
   H ( 13)  4.922403  3.780582  3.780554  2.492170  2.492200  1.759784
   H ( 14)  4.794862  2.602006  3.138768  3.065433  2.513136  1.759121
             H ( 13)
   H ( 14)  1.759785
 
 A cutoff of  1.0D-12 yielded    168 shell pairs
 There are       486 function pairs
 Smallest overlap matrix eigenvalue = 2.02E-01

 Scale SEOQF with 1.000000e-01/1.000000e+00/1.000000e+00

 Standard Electronic Orientation quadrupole field applied
 Nucleus-field energy     =     0.0000000049 hartrees
 Guess from superposition of atomic densities
 Warning:  Energy on first SCF cycle will be non-variational
 SAD guess density has 34.000000 electrons

 -----------------------------------------------------------------------
  General SCF calculation program by
  Eric Jon Sundstrom, Paul Horn, Yuezhi Mao, Dmitri Zuev, Alec White,
  David Stuck, Shaama M.S., Shane Yost, Joonho Lee, David Small,
  Daniel Levine, Susi Lehtola, Hugh Burton, Evgeny Epifanovsky,
  Bang C. Huynh
 -----------------------------------------------------------------------
 Hartree-Fock
 A restricted SCF calculation will be
 performed using DIIS
 SCF converges when DIIS error is below 1.0e-08
 ---------------------------------------
  Cycle       Energy         DIIS error
 ---------------------------------------
    1    -154.3450957305      1.82e-01  
    2    -155.4419688470      1.09e-02  
    3    -155.4651511555      2.82e-03  
    4    -155.4666290164      3.28e-04  
    5    -155.4666480261      1.80e-05  
    6    -155.4666480920      3.21e-06  
    7    -155.4666480937      3.18e-07  
    8    -155.4666480938      4.86e-08  
    9    -155.4666480938      5.94e-09  Convergence criterion met
 ---------------------------------------
 SCF time:   CPU 0.26s  wall 0.00s 
 SCF   energy in the final basis set =     -155.4666480938
 Total energy in the final basis set =     -155.4666480938
 
 --------------------------------------------------------------
             Orbital Energies (a.u.) and Symmetries
 --------------------------------------------------------------
 
 Alpha MOs, Restricted
 -- Occupied --                  
-11.038 -11.038 -11.032 -11.032  -1.027  -0.943  -0.827  -0.758
  1 B     1 A     2 B     2 A     3 A     3 B     4 A     4 B                  
 -0.610  -0.555  -0.542  -0.539  -0.485  -0.470  -0.433  -0.431
  5 A     6 A     5 B     6 B     7 B     7 A     8 B     8 A                  
 -0.415
  9 A                                                                          
 -- Virtual --                   
  0.601   0.617   0.652   0.684   0.687   0.737   0.751   0.766
  9 B    10 A    10 B    11 A    11 B    12 A    12 B    13 A                  
  0.768   0.768   0.798   0.800   0.832
 14 A    13 B    15 A    14 B    15 B                                          
 
 Beta MOs, Restricted
 -- Occupied --                  
-11.038 -11.038 -11.032 -11.032  -1.027  -0.943  -0.827  -0.758
  1 B     1 A     2 B     2 A     3 A     3 B     4 A     4 B                  
 -0.610  -0.555  -0.542  -0.539  -0.485  -0.470  -0.433  -0.431
  5 A     6 A     5 B     6 B     7 B     7 A     8 B     8 A                  
 -0.415
  9 A                                                                          
 -- Virtual --                   
  0.601   0.617   0.652   0.684   0.687   0.737   0.751   0.766
  9 B    10 A    10 B    11 A    11 B    12 A    12 B    13 A                  
  0.768   0.768   0.798   0.800   0.832
 14 A    13 B    15 A    14 B    15 B                                          
 --------------------------------------------------------------
 
          Ground-State Mulliken Net Atomic Charges

     Atom                 Charge (a.u.)
  ----------------------------------------
      1 C                    -0.178162
      2 C                    -0.094380
      3 C                    -0.094380
      4 C                    -0.178162
      5 H                     0.057561
      6 H                     0.056419
      7 H                     0.056419
      8 H                     0.051072
      9 H                     0.051071
     10 H                     0.051071
     11 H                     0.051072
     12 H                     0.056419
     13 H                     0.057561
     14 H                     0.056419
  ----------------------------------------
  Sum of atomic charges =     0.000000

 -----------------------------------------------------------------
                    Cartesian Multipole Moments
 -----------------------------------------------------------------
    Charge (ESU x 10^10)
                -0.0000
    Dipole Moment (Debye)
         X      -0.0000      Y      -0.0000      Z       0.0000
       Tot       0.0000
    Quadrupole Moments (Debye-Ang)
        XX     -27.3393     XY       0.1433     YY     -26.7879
        XZ      -0.0000     YZ      -0.0000     ZZ     -26.4544
    Octopole Moments (Debye-Ang^2)
       XXX       0.0000    XXY      -0.0000    XYY      -0.0000
       YYY       0.0000    XXZ       0.0001    XYZ       0.0000
       YYZ      -0.0001    XZZ       0.0000    YZZ       0.0000
       ZZZ       0.0001
    Hexadecapole Moments (Debye-Ang^3)
      XXXX    -423.9005   XXXY       5.2303   XXYY     -81.2974
      XYYY       0.4413   YYYY     -78.4826   XXXZ      -0.0000
      XXYZ       0.0000   XYYZ      -0.0000   YYYZ      -0.0000
      XXZZ     -78.0171   XYZZ      -1.7693   YYZZ     -19.1039
      XZZZ      -0.0000   YZZZ      -0.0000   ZZZZ     -48.7643
 -----------------------------------------------------------------
 Calculating analytic gradient of the SCF energy
 Gradient of SCF Energy
            1           2           3           4           5           6
    1   0.0000255  -0.0000137   0.0000137  -0.0000255  -0.0000056   0.0000015
    2   0.0000012   0.0000486  -0.0000486  -0.0000012  -0.0000281   0.0000097
    3   0.0000026  -0.0000064  -0.0000064   0.0000026   0.0000002   0.0000125
            7           8           9          10          11          12
    1   0.0000013  -0.0000050  -0.0000032   0.0000032   0.0000050  -0.0000013
    2   0.0000100  -0.0000196  -0.0000236   0.0000236   0.0000196  -0.0000100
    3  -0.0000123  -0.0000006   0.0000039   0.0000039  -0.0000006  -0.0000123
           13          14
    1   0.0000056  -0.0000015
    2   0.0000281  -0.0000097
    3   0.0000002   0.0000125
 Max gradient component =       4.859E-05
 RMS gradient           =       1.628E-05
 Gradient time:  CPU 0.10 s  wall 0.10 s
 Geometry Optimization Parameters
   NAtoms,    NIC,     NZ,  NCons,   NDum,   NFix, NCnnct, MaxDiis
       14      92       0       1       0       0       0       0


** CONSTRAINED OPTIMIZATION IN DELOCALIZED INTERNAL COORDINATES **
   Searching for a Minimum

   Optimization Cycle:   1

                       Coordinates (Angstroms)
     ATOM                X               Y               Z
      1  C         1.9660496817   -0.1249185369   -0.0000046559
      2  C         0.5680166267    0.5235690826   -0.0000047633
      3  C        -0.5680166267   -0.5235690826   -0.0000047633
      4  C        -1.9660496817    0.1249185369   -0.0000046559
      5  H         2.7406280802    0.6362669947    0.0000244576
      6  H         2.1013185349   -0.7473636993   -0.8795738965
      7  H         2.1012866092   -0.7473955410    0.8795467033
      8  H         0.4674131452    1.1621360016   -0.8757695464
      9  H         0.4674287013    1.1620461033    0.8758285528
     10  H        -0.4674287013   -1.1620461033    0.8758285528
     11  H        -0.4674131452   -1.1621360016   -0.8757695464
     12  H        -2.1012866092    0.7473955410    0.8795467033
     13  H        -2.7406280802   -0.6362669947    0.0000244576
     14  H        -2.1013185349    0.7473636993   -0.8795738965
   Point Group: c2    Number of degrees of freedom:    19


   Energy is   -155.466648094

              Constraints and their Current Values
                                        Value     Constraint
   Dihedral:        1   2   3   4      180.000     -180.000

 Attempting to generate delocalized internal coordinates
 Initial Hessian constructed with Jon Baker's OPTIMIZE code

 18 Hessian modes will be used to form the next step
  Hessian Eigenvalues:
     0.045000    0.053794    0.078452    0.083298    0.083382    0.103226
     0.120583    0.160000    0.160000    0.160000    0.219568    0.280793
     0.284205    0.349854    0.349855    0.352800    0.352800    0.352801

 Minimum search - taking simple RFO step
 Searching for Lamda that Minimizes Along All modes
 Value Taken    Lamda =  -0.00000003
 Step Taken.  Stepsize is  0.000493

                             Maximum     Tolerance    Cnvgd?
         Gradient           0.000045      0.000300     YES
         Displacement       0.000242      0.001200     YES
         Energy change     *********      0.000001      NO


                       Distance Matrix (Angstroms)
             C (  1)   C (  2)   C (  3)   C (  4)   H (  5)   H (  6)
   C (  2)  1.541114
   C (  3)  2.565232  1.545015
   C (  4)  3.940028  2.565232  1.541114
   H (  5)  1.085990  2.175532  3.506045  4.734374
   H (  6)  1.085992  2.177137  2.819411  4.251823  1.759785
   H (  7)  1.085991  2.177126  2.819377  4.251796  1.759784  1.759121
   H (  8)  2.160876  1.088509  2.163488  2.786490  2.492200  2.513136
   H (  9)  2.160839  1.088510  2.163453  2.786491  2.492170  3.065433
   H ( 10)  2.786491  2.163453  1.088510  2.160839  3.780554  3.138768
   H ( 11)  2.786490  2.163488  1.088509  2.160876  3.780582  2.602006
   H ( 12)  4.251796  2.819377  2.177126  1.085991  4.922403  4.794862
   H ( 13)  4.734374  3.506045  2.175532  1.085990  5.627034  4.922447
   H ( 14)  4.251823  2.819411  2.177137  1.085992  4.922447  4.460535
             H (  7)   H (  8)   H (  9)   H ( 10)   H ( 11)   H ( 12)
   H (  8)  3.065451
   H (  9)  2.513060  1.751598
   H ( 10)  2.601970  3.056771  2.505067
   H ( 11)  3.138688  2.505223  3.056771  1.751598
   H ( 12)  4.460496  3.138688  2.601970  2.513060  3.065451
   H ( 13)  4.922403  3.780582  3.780554  2.492170  2.492200  1.759784
   H ( 14)  4.794862  2.602006  3.138768  3.065433  2.513136  1.759121
             H ( 13)
   H ( 14)  1.759785
 
 Final energy is   -155.466648093758     


 ******************************
 **  OPTIMIZATION CONVERGED  **
 ******************************

                       Coordinates (Angstroms)
     ATOM                X               Y               Z
      1  C         1.9660496817   -0.1249185369   -0.0000046559
      2  C         0.5680166267    0.5235690826   -0.0000047633
      3  C        -0.5680166267   -0.5235690826   -0.0000047633
      4  C        -1.9660496817    0.1249185369   -0.0000046559
      5  H         2.7406280802    0.6362669947    0.0000244576
      6  H         2.1013185349   -0.7473636993   -0.8795738965
      7  H         2.1012866092   -0.7473955410    0.8795467033
      8  H         0.4674131452    1.1621360016   -0.8757695464
      9  H         0.4674287013    1.1620461033    0.8758285528
     10  H        -0.4674287013   -1.1620461033    0.8758285528
     11  H        -0.4674131452   -1.1621360016   -0.8757695464
     12  H        -2.1012866092    0.7473955410    0.8795467033
     13  H        -2.7406280802   -0.6362669947    0.0000244576
     14  H        -2.1013185349    0.7473636993   -0.8795738965

Z-matrix Print:
$molecule
0 1
C 
H  1 1.088509
H  1 1.088510 2 107.140448
C  1 1.541114 2 109.311084 3 -118.340953 0
H  4 1.085990 1 110.615079 2 58.488405 0
H  4 1.085991 1 110.741945 2 178.485245 0
H  4 1.085992 1 110.742812 2 -61.509141 0
C  1 1.545015 2 109.247020 3 118.230496 0
H  8 1.088509 1 109.247020 2 63.099508 0
H  8 1.088510 1 109.244243 2 -179.994359 0
C  8 1.541114 1 112.447136 2 -58.450250 0
H  11 1.085990 8 110.615079 1 -179.998359 0
H  11 1.085991 8 110.741945 1 -60.001519 0
H  11 1.085992 8 110.742812 1 60.004095 0
$end

PES scan, value: -180.0000 energy: -155.4666480938

                       Distance Matrix (Angstroms)
             C (  1)   C (  2)   C (  3)   C (  4)   H (  5)   H (  6)
   C (  2)  1.541114
   C (  3)  2.565232  1.545015
   C (  4)  3.940028  2.565232  1.541114
   H (  5)  1.085990  2.175532  3.506045  4.734374
   H (  6)  1.085992  2.177137  2.819411  4.251823  1.759785
   H (  7)  1.085991  2.177126  2.819377  4.251796  1.759784  1.759121
   H (  8)  2.160876  1.088509  2.163488  2.786490  2.492200  2.513136
   H (  9)  2.160839  1.088510  2.163453  2.786491  2.492170  3.065433
   H ( 10)  2.786491  2.163453  1.088510  2.160839  3.780554  3.138768
   H ( 11)  2.786490  2.163488  1.088509  2.160876  3.780582  2.602006
   H ( 12)  4.251796  2.819377  2.177126  1.085991  4.922403  4.794862
   H ( 13)  4.734374  3.506045  2.175532  1.085990  5.627034  4.922447
   H ( 14)  4.251823  2.819411  2.177137  1.085992  4.922447  4.460535
             H (  7)   H (  8)   H (  9)   H ( 10)   H ( 11)   H ( 12)
   H (  8)  3.065451
   H (  9)  2.513060  1.751598
   H ( 10)  2.601970  3.056771  2.505067
   H ( 11)  3.138688  2.505223  3.056771  1.751598
   H ( 12)  4.460496  3.138688  2.601970  2.513060  3.065451
   H ( 13)  4.922403  3.780582  3.780554  2.492170  2.492200  1.759784
   H ( 14)  4.794862  2.602006  3.138768  3.065433  2.513136  1.759121
             H ( 13)
   H ( 14)  1.759785
 
 Applying Cartesian multipole field
    Component          Value
    ---------          -----
     (2,0,0)        1.00000E-11
     (0,2,0)        2.00000E-10
     (0,0,2)       -3.00000E-10
 Nucleus-field energy     =     0.0000000049 hartrees
 Guess from superposition of atomic densities
 Warning:  Energy on first SCF cycle will be non-variational
 SAD guess density has 34.000000 electrons

 -----------------------------------------------------------------------
  General SCF calculation program by
  Eric Jon Sundstrom, Paul Horn, Yuezhi Mao, Dmitri Zuev, Alec White,
  David Stuck, Shaama M.S., Shane Yost, Joonho Lee, David Small,
  Daniel Levine, Susi Lehtola, Hugh Burton, Evgeny Epifanovsky,
  Bang C. Huynh
 -----------------------------------------------------------------------
 Hartree-Fock
 A restricted SCF calculation will be
 performed using DIIS
 SCF converges when DIIS error is below 1.0e-08
 ---------------------------------------
  Cycle       Energy         DIIS error
 ---------------------------------------
    1    -154.3450957256      1.82e-01  
    2    -155.4419688421      1.09e-02  
    3    -155.4651511506      2.82e-03  
    4    -155.4666290115      3.28e-04  
    5    -155.4666480212      1.80e-05  
    6    -155.4666480871      3.21e-06  
    7    -155.4666480888      3.18e-07  
    8    -155.4666480889      4.86e-08  
    9    -155.4666480889      5.94e-09  Convergence criterion met
 ---------------------------------------
 SCF time:   CPU 0.35s  wall 0.00s 
 SCF   energy in the final basis set =     -155.4666480889
 Total energy in the final basis set =     -155.4666480889
 
 --------------------------------------------------------------
             Orbital Energies (a.u.) and Symmetries
 --------------------------------------------------------------
 
 Alpha MOs, Restricted
 -- Occupied --                  
-11.038 -11.038 -11.032 -11.032  -1.027  -0.943  -0.827  -0.758
  1 B     1 A     2 B     2 A     3 A     3 B     4 A     4 B                  
 -0.610  -0.555  -0.542  -0.539  -0.485  -0.470  -0.433  -0.431
  5 A     6 A     5 B     6 B     7 B     7 A     8 B     8 A                  
 -0.415
  9 A                                                                          
 -- Virtual --                   
  0.601   0.617   0.652   0.684   0.687   0.737   0.751   0.766
  9 B    10 A    10 B    11 A    11 B    12 A    12 B    13 A                  
  0.768   0.768   0.798   0.800   0.832
 14 A    13 B    15 A    14 B    15 B                                          
 
 Beta MOs, Restricted
 -- Occupied --                  
-11.038 -11.038 -11.032 -11.032  -1.027  -0.943  -0.827  -0.758
  1 B     1 A     2 B     2 A     3 A     3 B     4 A     4 B                  
 -0.610  -0.555  -0.542  -0.539  -0.485  -0.470  -0.433  -0.431
  5 A     6 A     5 B     6 B     7 B     7 A     8 B     8 A                  
 -0.415
  9 A                                                                          
 -- Virtual --                   
  0.601   0.617   0.652   0.684   0.687   0.737   0.751   0.766
  9 B    10 A    10 B    11 A    11 B    12 A    12 B    13 A                  
  0.768   0.768   0.798   0.800   0.832
 14 A    13 B    15 A    14 B    15 B                                          
 --------------------------------------------------------------
 
          Ground-State Mulliken Net Atomic Charges

     Atom                 Charge (a.u.)
  ----------------------------------------
      1 C                    -0.178162
      2 C                    -0.094380
      3 C                    -0.094380
      4 C                    -0.178162
      5 H                     0.057561
      6 H                     0.056419
      7 H                     0.056419
      8 H                     0.051072
      9 H                     0.051071
     10 H                     0.051071
     11 H                     0.051072
     12 H                     0.056419
     13 H                     0.057561
     14 H                     0.056419
  ----------------------------------------
  Sum of atomic charges =     0.000000

 -----------------------------------------------------------------
                    Cartesian Multipole Moments
 -----------------------------------------------------------------
    Charge (ESU x 10^10)
                -0.0000
    Dipole Moment (Debye)
         X       0.0000      Y      -0.0000      Z       0.0000
       Tot       0.0000
    Quadrupole Moments (Debye-Ang)
        XX     -27.3393     XY       0.1433     YY     -26.7879
        XZ      -0.0000     YZ       0.0000     ZZ     -26.4544
    Octopole Moments (Debye-Ang^2)
       XXX       0.0000    XXY      -0.0000    XYY      -0.0000
       YYY       0.0000    XXZ       0.0001    XYZ       0.0000
       YYZ      -0.0001    XZZ       0.0000    YZZ       0.0000
       ZZZ       0.0001
    Hexadecapole Moments (Debye-Ang^3)
      XXXX    -423.9005   XXXY       5.2303   XXYY     -81.2974
      XYYY       0.4413   YYYY     -78.4826   XXXZ      -0.0000
      XXYZ       0.0000   XYYZ      -0.0000   YYYZ       0.0000
      XXZZ     -78.0171   XYZZ      -1.7693   YYZZ     -19.1039
      XZZZ      -0.0000   YZZZ       0.0000   ZZZZ     -48.7643
 -----------------------------------------------------------------
 Calculating analytic gradient of the SCF energy
 Gradient of SCF Energy
            1           2           3           4           5           6
    1   0.0000255  -0.0000137   0.0000137  -0.0000255  -0.0000056   0.0000015
    2   0.0000012   0.0000486  -0.0000486  -0.0000012  -0.0000281   0.0000097
    3   0.0000026  -0.0000064  -0.0000064   0.0000026   0.0000002   0.0000125
            7           8           9          10          11          12
    1   0.0000013  -0.0000050  -0.0000032   0.0000032   0.0000050  -0.0000013
    2   0.0000100  -0.0000196  -0.0000236   0.0000236   0.0000196  -0.0000100
    3  -0.0000123  -0.0000006   0.0000039   0.0000039  -0.0000006  -0.0000123
           13          14
    1   0.0000056  -0.0000015
    2   0.0000281  -0.0000097
    3   0.0000002   0.0000125
 Max gradient component =       4.859E-05
 RMS gradient           =       1.628E-05
 Gradient time:  CPU 0.09 s  wall 0.09 s
 Geometry Optimization Parameters
   NAtoms,    NIC,     NZ,  NCons,   NDum,   NFix, NCnnct, MaxDiis
       14      92       0       1       0       0       0       0


** CONSTRAINED OPTIMIZATION IN DELOCALIZED INTERNAL COORDINATES **
   Searching for a Minimum

   Optimization Cycle:   1

                       Coordinates (Angstroms)
     ATOM                X               Y               Z
      1  C         1.9660496817   -0.1249185369   -0.0000046559
      2  C         0.5680166267    0.5235690826   -0.0000047633
      3  C        -0.5680166267   -0.5235690826   -0.0000047633
      4  C        -1.9660496817    0.1249185369   -0.0000046559
      5  H         2.7406280802    0.6362669947    0.0000244576
      6  H         2.1013185349   -0.7473636993   -0.8795738965
      7  H         2.1012866092   -0.7473955410    0.8795467033
      8  H         0.4674131452    1.1621360016   -0.8757695464
      9  H         0.4674287013    1.1620461033    0.8758285528
     10  H        -0.4674287013   -1.1620461033    0.8758285528
     11  H        -0.4674131452   -1.1621360016   -0.8757695464
     12  H        -2.1012866092    0.7473955410    0.8795467033
     13  H        -2.7406280802   -0.6362669947    0.0000244576
     14  H        -2.1013185349    0.7473636993   -0.8795738965
   Point Group: c2    Number of degrees of freedom:    19


   Energy is   -155.466648089

              Constraints and their Current Values
                                        Value     Constraint
   Dihedral:        1   2   3   4      180.000     -165.000

 Attempting to generate delocalized internal coordinates
 Initial Hessian constructed with Jon Baker's OPTIMIZE code

   Using Lagrange Multiplier Algorithm


 20 Hessian modes will be used to form the next step
  Hessian Eigenvalues:
    -0.977753    0.045000    0.053794    0.078452    0.083298    0.083382
     0.103226    0.120583    0.160000    0.160000    0.160000    0.219568
     0.280793    0.284205    0.349854    0.349855    0.352800    0.352800
     0.352801    1.022753

 Minimum search - taking P-RFO step
 Searching for Lamda that maximizes along the constraint modes only
 Value Taken    Lamda =   0.03461011
 Searching for Lamda that minimizes along all other modes
 Value Taken    Lamda =  -0.03176891
 Step Taken.  Stepsize is  0.253369

                             Maximum     Tolerance    Cnvgd?
         Gradient            0.261800       0.000300      NO
         Displacement        0.253369       0.001200      NO
         Energy change     *********       0.000001      NO


 New Cartesian Coordinates Obtained by Inverse Iteration

 Displacement from previous Coordinates is:  0.852534
 ----------------------------------------------------------------
             Standard Nuclear Orientation (Angstroms)
    I     Atom           X                Y                Z
 ----------------------------------------------------------------
    1      C       1.9565077944    -0.1234541563    -0.0580119607
    2      C       0.5689932261     0.5225084229     0.1221189264
    3      C      -0.5689932261    -0.5225084229     0.1221189264
    4      C      -1.9565077944     0.1234541563    -0.0580119607
    5      H       2.7300330857     0.6377123662    -0.0996065064
    6      H       1.9962822732    -0.6990929598    -0.9780566203
    7      H       2.1804148371    -0.7907421573     0.7690407070
    8      H       0.4712781010     1.1604761283    -0.7544274707
    9      H       0.4635289183     1.1587952317     0.9989897764
   10      H      -0.4635289183    -1.1587952317     0.9989897764
   11      H      -0.4712781010    -1.1604761283    -0.7544274707
   12      H      -2.1804148371     0.7907421573     0.7690407070
   13      H      -2.7300330857    -0.6377123662    -0.0996065064
   14      H      -1.9962822732     0.6990929598    -0.9780566203
 ----------------------------------------------------------------
 Molecular Point Group                 C2    NOp =  2
 Largest Abelian Subgroup              C2    NOp =  2
 Nuclear Repulsion Energy =         130.34459368 hartrees
 There are       17 alpha and       17 beta electrons

                       Distance Matrix (Angstroms)
             C (  1)   C (  2)   C (  3)   C (  4)   H (  5)   H (  6)
   C (  2)  1.541075
   C (  3)  2.563171  1.545016
   C (  4)  3.920798  2.563171  1.541075
   H (  5)  1.086023  2.175437  3.504119  4.714855
   H (  6)  1.086013  2.177120  2.796821  4.140968  1.759862
   H (  7)  1.086013  2.177112  2.837200  4.316700  1.759861  1.759163
   H (  8)  2.083118  1.088524  2.164009  2.730303  2.409159  2.415294
   H (  9)  2.233921  1.088525  2.159117  2.836505  2.572058  3.116054
   H ( 10)  2.836505  2.159117  1.088525  2.233921  3.825335  3.189155
   H ( 11)  2.730303  2.164009  1.088524  2.083118  3.729700  2.520266
   H ( 12)  4.316700  2.837200  2.177112  1.086013  4.989034  4.766210
   H ( 13)  4.714855  3.504119  2.175437  1.086023  5.607052  4.807650
   H ( 14)  4.140968  2.796821  2.177120  1.086013  4.807650  4.230307
             H (  7)   H (  8)   H (  9)   H ( 10)   H ( 11)   H ( 12)
   H (  8)  3.008215
   H (  9)  2.607924  1.753435
   H ( 10)  2.679324  3.054072  2.496129
   H ( 11)  3.080444  2.505041  3.054072  1.753435
   H ( 12)  4.638742  3.080444  2.679324  2.607924  3.008215
   H ( 13)  4.989034  3.729700  3.825335  2.572058  2.409159  1.759861
   H ( 14)  4.766210  2.520266  3.189155  3.116054  2.415294  1.759163
             H ( 13)
   H ( 14)  1.759862
 
 Applying Cartesian multipole field
    Component          Value
    ---------          -----
     (2,0,0)        1.00000E-11
     (0,2,0)        2.00000E-10
     (0,0,2)       -3.00000E-10
 Nucleus-field energy     =     0.0000000045 hartrees
 Requested basis set is STO-3G
 There are 18 shells and 30 basis functions
 A cutoff of  1.0D-12 yielded    168 shell pairs
 There are       486 function pairs
 Smallest overlap matrix eigenvalue = 2.02E-01
 Guess from superposition of atomic densities
 Warning:  Energy on first SCF cycle will be non-variational
 SAD guess density has 34.000000 electrons

 -----------------------------------------------------------------------
  General SCF calculation program by
  Eric Jon Sundstrom, Paul Horn, Yuezhi Mao, Dmitri Zuev, Alec White,
  David Stuck, Shaama M.S., Shane Yost, Joonho Lee, David Small,
  Daniel Levine, Susi Lehtola, Hugh Burton, Evgeny Epifanovsky,
  Bang C. Huynh
 -----------------------------------------------------------------------
 Hartree-Fock
 A restricted SCF calculation will be
 performed using DIIS
 SCF converges when DIIS error is below 1.0e-08
 ---------------------------------------
  Cycle       Energy         DIIS error
 ---------------------------------------
    1    -154.3479507607      1.82e-01  
    2    -155.4368509082      1.09e-02  
    3    -155.4600426926      2.82e-03  
    4    -155.4615242464      3.24e-04  
    5    -155.4615428904      1.84e-05  
    6    -155.4615429605      3.33e-06  
    7    -155.4615429625      4.20e-07  
    8    -155.4615429625      7.35e-08  
    9    -155.4615429625      7.33e-09  Convergence criterion met
 ---------------------------------------
 SCF time:   CPU 0.36s  wall 0.00s 
 SCF   energy in the final basis set =     -155.4615429625
 Total energy in the final basis set =     -155.4615429625
 
 --------------------------------------------------------------
             Orbital Energies (a.u.) and Symmetries
 --------------------------------------------------------------
 
 Alpha MOs, Restricted
 -- Occupied --                  
-11.038 -11.037 -11.032 -11.032  -1.028  -0.943  -0.827  -0.758
  1 B     1 A     2 B     2 A     3 A     3 B     4 A     4 B                  
 -0.611  -0.555  -0.542  -0.539  -0.487  -0.473  -0.431  -0.427
  5 A     6 A     5 B     6 B     7 B     7 A     8 B     8 A                  
 -0.413
  9 A                                                                          
 -- Virtual --                   
  0.600   0.614   0.641   0.685   0.694   0.736   0.751   0.759
  9 B    10 A    10 B    11 A    11 B    12 A    12 B    13 A                  
  0.769   0.776   0.798   0.799   0.837
 13 B    14 A    15 A    14 B    15 B                                          
 
 Beta MOs, Restricted
 -- Occupied --                  
-11.038 -11.037 -11.032 -11.032  -1.028  -0.943  -0.827  -0.758
  1 B     1 A     2 B     2 A     3 A     3 B     4 A     4 B                  
 -0.611  -0.555  -0.542  -0.539  -0.487  -0.473  -0.431  -0.427
  5 A     6 A     5 B     6 B     7 B     7 A     8 B     8 A                  
 -0.413
  9 A                                                                          
 -- Virtual --                   
  0.600   0.614   0.641   0.685   0.694   0.736   0.751   0.759
  9 B    10 A    10 B    11 A    11 B    12 A    12 B    13 A                  
  0.769   0.776   0.798   0.799   0.837
 13 B    14 A    15 A    14 B    15 B                                          
 --------------------------------------------------------------
 
          Ground-State Mulliken Net Atomic Charges

     Atom                 Charge (a.u.)
  ----------------------------------------
      1 C                    -0.177223
      2 C                    -0.095594
      3 C                    -0.095594
      4 C                    -0.177223
      5 H                     0.057445
      6 H                     0.058391
      7 H                     0.054249
      8 H                     0.049414
      9 H                     0.053318
     10 H                     0.053318
     11 H                     0.049414
     12 H                     0.054249
     13 H                     0.057445
     14 H                     0.058391
  ----------------------------------------
  Sum of atomic charges =     0.000000

 -----------------------------------------------------------------
                    Cartesian Multipole Moments
 -----------------------------------------------------------------
    Charge (ESU x 10^10)
                -0.0000
    Dipole Moment (Debye)
         X       0.0000      Y      -0.0000      Z      -0.0504
       Tot       0.0504
    Quadrupole Moments (Debye-Ang)
        XX     -27.3690     XY       0.1569     YY     -26.8012
        XZ      -0.0000     YZ       0.0000     ZZ     -26.4203
    Octopole Moments (Debye-Ang^2)
       XXX       0.0000    XXY       0.0000    XYY       0.0000
       YYY      -0.0000    XXZ      -0.7793    XYZ      -0.1828
       YYZ      -0.3500    XZZ      -0.0000    YZZ      -0.0000
       ZZZ      -1.6755
    Hexadecapole Moments (Debye-Ang^3)
      XXXX    -420.6025   XXXY       4.9850   XXYY     -80.6805
      XYYY       0.2367   YYYY     -78.3167   XXXZ      -0.0000
      XXYZ       0.0000   XYYZ      -0.0000   YYYZ       0.0000
      XXZZ     -77.7888   XYZZ      -1.7559   YYZZ     -19.3022
      XZZZ      -0.0000   YZZZ       0.0000   ZZZZ     -50.0973
 -----------------------------------------------------------------
 Calculating analytic gradient of the SCF energy
 Gradient of SCF Energy
            1           2           3           4           5           6
    1  -0.0026959   0.0019627  -0.0019627   0.0026959  -0.0000756   0.0022335
    2   0.0012954  -0.0003704   0.0003704  -0.0012954   0.0000261  -0.0010547
    3  -0.0175228   0.0222297   0.0222297  -0.0175228  -0.0001417  -0.0001091
            7           8           9          10          11          12
    1  -0.0023337   0.0102059  -0.0099473   0.0099473  -0.0102059   0.0023337
    2   0.0010777  -0.0042448   0.0027443  -0.0027443   0.0042448  -0.0010777
    3   0.0004942  -0.0030102  -0.0019402  -0.0019402  -0.0030102   0.0004942
           13          14
    1   0.0000756  -0.0022335
    2  -0.0000261   0.0010547
    3  -0.0001417  -0.0001091
 Max gradient component =       2.223E-02
 RMS gradient           =       7.133E-03
 Gradient time:  CPU 0.10 s  wall 0.10 s
 Geometry Optimization Parameters
   NAtoms,    NIC,     NZ,  NCons,   NDum,   NFix, NCnnct, MaxDiis
       14      92       0       1       0       0       0       0

 Cartesian Hessian Update
 Hessian updated using BFGS update


** CONSTRAINED OPTIMIZATION IN DELOCALIZED INTERNAL COORDINATES **
   Searching for a Minimum

   Optimization Cycle:   2

                       Coordinates (Angstroms)
     ATOM                X               Y               Z
      1  C         1.9565077944   -0.1234541563   -0.0580119607
      2  C         0.5689932261    0.5225084229    0.1221189264
      3  C        -0.5689932261   -0.5225084229    0.1221189264
      4  C        -1.9565077944    0.1234541563   -0.0580119607
      5  H         2.7300330857    0.6377123662   -0.0996065064
      6  H         1.9962822732   -0.6990929598   -0.9780566203
      7  H         2.1804148371   -0.7907421573    0.7690407070
      8  H         0.4712781010    1.1604761283   -0.7544274707
      9  H         0.4635289183    1.1587952317    0.9989897764
     10  H        -0.4635289183   -1.1587952317    0.9989897764
     11  H        -0.4712781010   -1.1604761283   -0.7544274707
     12  H        -2.1804148371    0.7907421573    0.7690407070
     13  H        -2.7300330857   -0.6377123662   -0.0996065064
     14  H        -1.9962822732    0.6990929598   -0.9780566203
   Point Group: c2    Number of degrees of freedom:    19


   Energy is   -155.461542963

              Constraints and their Current Values
                                        Value     Constraint
   Dihedral:        1   2   3   4     -165.483     -165.000
 Hessian updated using BFGS update

   Using Lagrange Multiplier Algorithm


 19 Hessian modes will be used to form the next step
  Hessian Eigenvalues:
    -0.927165    0.045003    0.060748    0.078520    0.083298    0.083780
     0.103226    0.145645    0.160000    0.181604    0.219652    0.280879
     0.284572    0.349854    0.350278    0.352800    0.352801    0.353111
     1.088393

 Minimum search - taking P-RFO step
 Searching for Lamda that maximizes along the constraint modes only
 Value Taken    Lamda =   0.00066440
 Searching for Lamda that minimizes along all other modes
 Value Taken    Lamda =  -0.00404278
 Step Taken.  Stepsize is  0.169059

                             Maximum     Tolerance    Cnvgd?
         Gradient            0.029587       0.000300      NO
         Displacement        0.131171       0.001200      NO
         Energy change      0.005105       0.000001      NO


 New Cartesian Coordinates Obtained by Inverse Iteration

 Displacement from previous Coordinates is:  0.187183
 ----------------------------------------------------------------
             Standard Nuclear Orientation (Angstroms)
    I     Atom           X                Y                Z
 ----------------------------------------------------------------
    1      C       1.9589057632    -0.1237076476    -0.0594845448
    2      C       0.5704101962     0.5217276742     0.1265710075
    3      C      -0.5704101962    -0.5217276742     0.1265710075
    4      C      -1.9589057632     0.1237076476    -0.0594845448
    5      H       2.7310859565     0.6383430261    -0.1100317667
    6      H       1.9772388107    -0.6919384670    -0.9839555882
    7      H       2.2040197773    -0.7974402273     0.7572726543
    8      H       0.4341039498     1.1681186528    -0.7398141986
    9      H       0.5057497859     1.1533870621     1.0094892881
   10      H      -0.5057497859    -1.1533870621     1.0094892881
   11      H      -0.4341039498    -1.1681186528    -0.7398141986
   12      H      -2.2040197773     0.7974402273     0.7572726543
   13      H      -2.7310859565    -0.6383430261    -0.1100317667
   14      H      -1.9772388107     0.6919384670    -0.9839555882
 ----------------------------------------------------------------
 Molecular Point Group                 C2    NOp =  2
 Largest Abelian Subgroup              C2    NOp =  2
 Nuclear Repulsion Energy =         130.24586929 hartrees
 There are       17 alpha and       17 beta electrons

                       Distance Matrix (Angstroms)
             C (  1)   C (  2)   C (  3)   C (  4)   H (  5)   H (  6)
   C (  2)  1.542441
   C (  3)  2.567192  1.546050
   C (  4)  3.925616  2.567192  1.542441
   H (  5)  1.086066  2.176718  3.507367  4.718414
   H (  6)  1.085297  2.164583  2.784377  4.124701  1.761158
   H (  7)  1.086779  2.192412  2.858542  4.341147  1.758263  1.759101
   H (  8)  2.111086  1.089506  2.148314  2.698173  2.439962  2.429132
   H (  9)  2.210280  1.087529  2.177998  2.877060  2.543761  3.089390
   H ( 10)  2.877060  2.177998  1.087529  2.210280  3.865324  3.217451
   H ( 11)  2.698173  2.148314  1.089506  2.111086  3.698426  2.470005
   H ( 12)  4.341147  2.858542  2.192412  1.086779  5.013262  4.767919
   H ( 13)  4.718414  3.507367  2.176718  1.086066  5.609389  4.789043
   H ( 14)  4.124701  2.784377  2.164583  1.085297  4.789043  4.189631
             H (  7)   H (  8)   H (  9)   H ( 10)   H ( 11)   H ( 12)
   H (  8)  3.039291
   H (  9)  2.598742  1.750832
   H ( 10)  2.744661  3.054959  2.518797
   H ( 11)  3.055874  2.492346  3.054959  1.750832
   H ( 12)  4.687692  3.055874  2.744661  2.598742  3.039291
   H ( 13)  5.013262  3.698426  3.865324  2.543761  2.439962  1.758263
   H ( 14)  4.767919  2.470005  3.217451  3.089390  2.429132  1.759101
             H ( 13)
   H ( 14)  1.761158
 
 Applying Cartesian multipole field
    Component          Value
    ---------          -----
     (2,0,0)        1.00000E-11
     (0,2,0)        2.00000E-10
     (0,0,2)       -3.00000E-10
 Nucleus-field energy     =     0.0000000045 hartrees
 Requested basis set is STO-3G
 There are 18 shells and 30 basis functions
 A cutoff of  1.0D-12 yielded    168 shell pairs
 There are       486 function pairs
 Smallest overlap matrix eigenvalue = 2.02E-01
 Guess from superposition of atomic densities
 Warning:  Energy on first SCF cycle will be non-variational
 SAD guess density has 34.000000 electrons

 -----------------------------------------------------------------------
  General SCF calculation program by
  Eric Jon Sundstrom, Paul Horn, Yuezhi Mao, Dmitri Zuev, Alec White,
  David Stuck, Shaama M.S., Shane Yost, Joonho Lee, David Small,
  Daniel Levine, Susi Lehtola, Hugh Burton, Evgeny Epifanovsky,
  Bang C. Huynh
 -----------------------------------------------------------------------
 Hartree-Fock
 A restricted SCF calculation will be
 performed using DIIS
 SCF converges when DIIS error is below 1.0e-08
 ---------------------------------------
  Cycle       Energy         DIIS error
 ---------------------------------------
    1    -154.3416230803      1.82e-01  
    2    -155.4392307515      1.09e-02  
    3    -155.4624496898      2.82e-03  
    4    -155.4639332247      3.27e-04  
    5    -155.4639521989      1.83e-05  
    6    -155.4639522668      3.29e-06  
    7    -155.4639522687      3.59e-07  
    8    -155.4639522688      5.98e-08  
    9    -155.4639522688      6.83e-09  Convergence criterion met
 ---------------------------------------
 SCF time:   CPU 0.36s  wall 0.00s 
 SCF   energy in the final basis set =     -155.4639522688
 Total energy in the final basis set =     -155.4639522688
 
 --------------------------------------------------------------
             Orbital Energies (a.u.) and Symmetries
 --------------------------------------------------------------
 
 Alpha MOs, Restricted
 -- Occupied --                  
-11.038 -11.038 -11.032 -11.032  -1.027  -0.942  -0.827  -0.758
  1 B     1 A     2 B     2 A     3 A     3 B     4 A     4 B                  
 -0.610  -0.555  -0.542  -0.539  -0.485  -0.471  -0.433  -0.429
  5 A     6 A     5 B     6 B     7 B     7 A     8 B     8 A                  
 -0.414
  9 A                                                                          
 -- Virtual --                   
  0.598   0.617   0.648   0.683   0.689   0.736   0.751   0.762
  9 B    10 A    10 B    11 A    11 B    12 A    12 B    13 A                  
  0.767   0.770   0.798   0.799   0.837
 13 B    14 A    14 B    15 A    15 B                                          
 
 Beta MOs, Restricted
 -- Occupied --                  
-11.038 -11.038 -11.032 -11.032  -1.027  -0.942  -0.827  -0.758
  1 B     1 A     2 B     2 A     3 A     3 B     4 A     4 B                  
 -0.610  -0.555  -0.542  -0.539  -0.485  -0.471  -0.433  -0.429
  5 A     6 A     5 B     6 B     7 B     7 A     8 B     8 A                  
 -0.414
  9 A                                                                          
 -- Virtual --                   
  0.598   0.617   0.648   0.683   0.689   0.736   0.751   0.762
  9 B    10 A    10 B    11 A    11 B    12 A    12 B    13 A                  
  0.767   0.770   0.798   0.799   0.837
 13 B    14 A    14 B    15 A    15 B                                          
 --------------------------------------------------------------
 
          Ground-State Mulliken Net Atomic Charges

     Atom                 Charge (a.u.)
  ----------------------------------------
      1 C                    -0.177547
      2 C                    -0.095036
      3 C                    -0.095036
      4 C                    -0.177547
      5 H                     0.057510
      6 H                     0.057460
      7 H                     0.055222
      8 H                     0.049800
      9 H                     0.052591
     10 H                     0.052591
     11 H                     0.049800
     12 H                     0.055222
     13 H                     0.057510
     14 H                     0.057460
  ----------------------------------------
  Sum of atomic charges =     0.000000

 -----------------------------------------------------------------
                    Cartesian Multipole Moments
 -----------------------------------------------------------------
    Charge (ESU x 10^10)
                -0.0000
    Dipole Moment (Debye)
         X       0.0000      Y      -0.0000      Z      -0.0456
       Tot       0.0456
    Quadrupole Moments (Debye-Ang)
        XX     -27.3395     XY       0.1482     YY     -26.7901
        XZ       0.0000     YZ       0.0000     ZZ     -26.4532
    Octopole Moments (Debye-Ang^2)
       XXX       0.0000    XXY      -0.0000    XYY       0.0000
       YYY      -0.0000    XXZ      -0.4751    XYZ      -0.1820
       YYZ      -0.3770    XZZ       0.0000    YZZ      -0.0000
       ZZZ      -1.7313
    Hexadecapole Moments (Debye-Ang^3)
      XXXX    -421.1565   XXXY       4.8319   XXYY     -80.7828
      XYYY       0.2236   YYYY     -78.2865   XXXZ       0.0000
      XXYZ      -0.0000   XYYZ       0.0000   YYYZ       0.0000
      XXZZ     -78.0379   XYZZ      -1.6934   YYZZ     -19.3395
      XZZZ       0.0000   YZZZ       0.0000   ZZZZ     -50.1803
 -----------------------------------------------------------------
 Calculating analytic gradient of the SCF energy
 Gradient of SCF Energy
            1           2           3           4           5           6
    1  -0.0007582   0.0014017  -0.0014017   0.0007582   0.0001147  -0.0004743
    2   0.0004447  -0.0004867   0.0004867  -0.0004447  -0.0000848  -0.0000186
    3  -0.0100156   0.0148292   0.0148292  -0.0100156   0.0002409   0.0002608
            7           8           9          10          11          12
    1   0.0005802   0.0042965  -0.0047947   0.0047947  -0.0042965  -0.0005802
    2  -0.0000556  -0.0028251   0.0025232  -0.0025232   0.0028251   0.0000556
    3   0.0001477  -0.0030564  -0.0024066  -0.0024066  -0.0030564   0.0001477
           13          14
    1  -0.0001147   0.0004743
    2   0.0000848   0.0000186
    3   0.0002409   0.0002608
 Max gradient component =       1.483E-02
 RMS gradient           =       4.336E-03
 Gradient time:  CPU 0.10 s  wall 0.10 s
 Geometry Optimization Parameters
   NAtoms,    NIC,     NZ,  NCons,   NDum,   NFix, NCnnct, MaxDiis
       14      92       0       1       0       0       0       0

 Cartesian Hessian Update
 Hessian updated using BFGS update


** CONSTRAINED OPTIMIZATION IN DELOCALIZED INTERNAL COORDINATES **
   Searching for a Minimum

   Optimization Cycle:   3

                       Coordinates (Angstroms)
     ATOM                X               Y               Z
      1  C         1.9589057632   -0.1237076476   -0.0594845448
      2  C         0.5704101962    0.5217276742    0.1265710075
      3  C        -0.5704101962   -0.5217276742    0.1265710075
      4  C        -1.9589057632    0.1237076476   -0.0594845448
      5  H         2.7310859565    0.6383430261   -0.1100317667
      6  H         1.9772388107   -0.6919384670   -0.9839555882
      7  H         2.2040197773   -0.7974402273    0.7572726543
      8  H         0.4341039498    1.1681186528   -0.7398141986
      9  H         0.5057497859    1.1533870621    1.0094892881
     10  H        -0.5057497859   -1.1533870621    1.0094892881
     11  H        -0.4341039498   -1.1681186528   -0.7398141986
     12  H        -2.2040197773    0.7974402273    0.7572726543
     13  H        -2.7310859565   -0.6383430261   -0.1100317667
     14  H        -1.9772388107    0.6919384670   -0.9839555882
   Point Group: c2    Number of degrees of freedom:    19


   Energy is   -155.463952269

              Constraints and their Current Values
                                        Value     Constraint
   Dihedral:        1   2   3   4     -165.002     -165.000
 Hessian updated using BFGS update

   Using Lagrange Multiplier Algorithm


 20 Hessian modes will be used to form the next step
  Hessian Eigenvalues:
    -0.911034    0.035670    0.045021    0.078442    0.083297    0.084178
     0.103155    0.123597    0.159993    0.160000    0.210450    0.221078
     0.280906    0.288285    0.349854    0.351162    0.352800    0.352801
     0.357008    1.114155

 Minimum search - taking P-RFO step
 Searching for Lamda that maximizes along the constraint modes only
 Value Taken    Lamda =   0.00000024
 Searching for Lamda that minimizes along all other modes
 Value Taken    Lamda =  -0.00239040
 Step Taken.  Stepsize is  0.242721

                             Maximum     Tolerance    Cnvgd?
         Gradient            0.008153       0.000300      NO
         Displacement        0.176137       0.001200      NO
         Energy change     -0.002409       0.000001      NO


 New Cartesian Coordinates Obtained by Inverse Iteration

 Displacement from previous Coordinates is:  0.207132
 ----------------------------------------------------------------
             Standard Nuclear Orientation (Angstroms)
    I     Atom           X                Y                Z
 ----------------------------------------------------------------
    1      C       1.9608748289    -0.1223946208    -0.0669454406
    2      C       0.5725997645     0.5194279302     0.1184200981
    3      C      -0.5725997645    -0.5194279302     0.1184200981
    4      C      -1.9608748289     0.1223946208    -0.0669454406
    5      H       2.7319699155     0.6416507609    -0.1008387451
    6      H       1.9948766866    -0.6798415036    -0.9982489526
    7      H       2.1919108985    -0.8050619410     0.7454810337
    8      H       0.4045876475     1.1940449659    -0.7196263772
    9      H       0.5492256163     1.1255512055     1.0218052353
   10      H      -0.5492256163    -1.1255512055     1.0218052353
   11      H      -0.4045876475    -1.1940449659    -0.7196263772
   12      H      -2.1919108985     0.8050619410     0.7454810337
   13      H      -2.7319699155    -0.6416507609    -0.1008387451
   14      H      -1.9948766866     0.6798415036    -0.9982489526
 ----------------------------------------------------------------
 Molecular Point Group                 C2    NOp =  2
 Largest Abelian Subgroup              C2    NOp =  2
 Nuclear Repulsion Energy =         130.22511567 hartrees
 There are       17 alpha and       17 beta electrons

                       Distance Matrix (Angstroms)
             C (  1)   C (  2)   C (  3)   C (  4)   H (  5)   H (  6)
   C (  2)  1.540651
   C (  3)  2.571087  1.546190
   C (  4)  3.929382  2.571087  1.540651
   H (  5)  1.086049  2.173912  3.509467  4.721606
   H (  6)  1.085923  2.169808  2.804393  4.142328  1.759259
   H (  7)  1.086024  2.183952  2.849090  4.331956  1.760937  1.759289
   H (  8)  2.140335  1.088879  2.143177  2.677656  2.470778  2.473479
   H (  9)  2.176120  1.088134  2.186448  2.914156  2.501772  3.070825
   H ( 10)  2.914156  2.186448  1.088134  2.176120  3.892246  3.278983
   H ( 11)  2.677656  2.143177  1.088879  2.140335  3.686553  2.469709
   H ( 12)  4.331956  2.849090  2.183952  1.086024  4.998756  4.772287
   H ( 13)  4.721606  3.509467  2.173912  1.086049  5.612620  4.811432
   H ( 14)  4.142328  2.804393  2.169808  1.085923  4.811432  4.215076
             H (  7)   H (  8)   H (  9)   H ( 10)   H ( 11)   H ( 12)
   H (  8)  3.055731
   H (  9)  2.549909  1.748770
   H ( 10)  2.773607  3.053338  2.504807
   H ( 11)  3.006601  2.521456  3.053338  1.748770
   H ( 12)  4.670160  3.006601  2.773607  2.549909  3.055731
   H ( 13)  4.998756  3.686553  3.892246  2.501772  2.470778  1.760937
   H ( 14)  4.772287  2.469709  3.278983  3.070825  2.473479  1.759289
             H ( 13)
   H ( 14)  1.759259
 
 Applying Cartesian multipole field
    Component          Value
    ---------          -----
     (2,0,0)        1.00000E-11
     (0,2,0)        2.00000E-10
     (0,0,2)       -3.00000E-10
 Nucleus-field energy     =     0.0000000045 hartrees
 Requested basis set is STO-3G
 There are 18 shells and 30 basis functions
 A cutoff of  1.0D-12 yielded    168 shell pairs
 There are       486 function pairs
 Smallest overlap matrix eigenvalue = 2.02E-01
 Guess from superposition of atomic densities
 Warning:  Energy on first SCF cycle will be non-variational
 SAD guess density has 34.000000 electrons

 -----------------------------------------------------------------------
  General SCF calculation program by
  Eric Jon Sundstrom, Paul Horn, Yuezhi Mao, Dmitri Zuev, Alec White,
  David Stuck, Shaama M.S., Shane Yost, Joonho Lee, David Small,
  Daniel Levine, Susi Lehtola, Hugh Burton, Evgeny Epifanovsky,
  Bang C. Huynh
 -----------------------------------------------------------------------
 Hartree-Fock
 A restricted SCF calculation will be
 performed using DIIS
 SCF converges when DIIS error is below 1.0e-08
 ---------------------------------------
  Cycle       Energy         DIIS error
 ---------------------------------------
    1    -154.3455305609      1.82e-01  
    2    -155.4407104040      1.09e-02  
    3    -155.4639237992      2.82e-03  
    4    -155.4654045188      3.29e-04  
    5    -155.4654236859      1.82e-05  
    6    -155.4654237528      3.29e-06  
    7    -155.4654237547      3.32e-07  
    8    -155.4654237547      5.21e-08  
    9    -155.4654237547      6.29e-09  Convergence criterion met
 ---------------------------------------
 SCF time:   CPU 0.36s  wall 0.00s 
 SCF   energy in the final basis set =     -155.4654237547
 Total energy in the final basis set =     -155.4654237547
 
 --------------------------------------------------------------
             Orbital Energies (a.u.) and Symmetries
 --------------------------------------------------------------
 
 Alpha MOs, Restricted
 -- Occupied --                  
-11.038 -11.038 -11.032 -11.032  -1.027  -0.943  -0.827  -0.758
  1 B     1 A     2 B     2 A     3 A     3 B     4 A     4 B                  
 -0.610  -0.555  -0.545  -0.537  -0.485  -0.470  -0.432  -0.429
  5 A     6 A     5 B     6 B     7 B     7 A     8 B     8 A                  
 -0.416
  9 A                                                                          
 -- Virtual --                   
  0.598   0.617   0.652   0.684   0.687   0.736   0.751   0.759
  9 B    10 A    10 B    11 A    11 B    12 A    12 B    13 A                  
  0.768   0.772   0.798   0.802   0.836
 13 B    14 A    14 B    15 A    15 B                                          
 
 Beta MOs, Restricted
 -- Occupied --                  
-11.038 -11.038 -11.032 -11.032  -1.027  -0.943  -0.827  -0.758
  1 B     1 A     2 B     2 A     3 A     3 B     4 A     4 B                  
 -0.610  -0.555  -0.545  -0.537  -0.485  -0.470  -0.432  -0.429
  5 A     6 A     5 B     6 B     7 B     7 A     8 B     8 A                  
 -0.416
  9 A                                                                          
 -- Virtual --                   
  0.598   0.617   0.652   0.684   0.687   0.736   0.751   0.759
  9 B    10 A    10 B    11 A    11 B    12 A    12 B    13 A                  
  0.768   0.772   0.798   0.802   0.836
 13 B    14 A    14 B    15 A    15 B                                          
 --------------------------------------------------------------
 
          Ground-State Mulliken Net Atomic Charges

     Atom                 Charge (a.u.)
  ----------------------------------------
      1 C                    -0.177868
      2 C                    -0.094883
      3 C                    -0.094883
      4 C                    -0.177868
      5 H                     0.057673
      6 H                     0.056600
      7 H                     0.056244
      8 H                     0.050537
      9 H                     0.051697
     10 H                     0.051697
     11 H                     0.050537
     12 H                     0.056244
     13 H                     0.057673
     14 H                     0.056600
  ----------------------------------------
  Sum of atomic charges =     0.000000

 -----------------------------------------------------------------
                    Cartesian Multipole Moments
 -----------------------------------------------------------------
    Charge (ESU x 10^10)
                -0.0000
    Dipole Moment (Debye)
         X       0.0000      Y      -0.0000      Z      -0.0213
       Tot       0.0213
    Quadrupole Moments (Debye-Ang)
        XX     -27.3177     XY       0.1572     YY     -26.7825
        XZ       0.0000     YZ      -0.0000     ZZ     -26.4682
    Octopole Moments (Debye-Ang^2)
       XXX       0.0000    XXY       0.0000    XYY       0.0000
       YYY      -0.0000    XXZ      -0.2255    XYZ      -0.0983
       YYZ      -0.3097    XZZ       0.0000    YZZ      -0.0000
       ZZZ      -1.2889
    Hexadecapole Moments (Debye-Ang^3)
      XXXX    -422.2457   XXXY       4.7307   XXYY     -80.8519
      XYYY       0.0486   YYYY     -78.0586   XXXZ       0.0000
      XXYZ      -0.0000   XYYZ      -0.0000   YYYZ      -0.0000
      XXZZ     -78.1393   XYZZ      -1.7320   YYZZ     -19.3712
      XZZZ      -0.0000   YZZZ      -0.0000   ZZZZ     -50.1331
 -----------------------------------------------------------------
 Calculating analytic gradient of the SCF energy
 Gradient of SCF Energy
            1           2           3           4           5           6
    1  -0.0002050   0.0018801  -0.0018801   0.0002050  -0.0000438  -0.0003414
    2   0.0008317  -0.0025799   0.0025799  -0.0008317   0.0000889   0.0001112
    3  -0.0029228   0.0062991   0.0062991  -0.0029228  -0.0004041  -0.0001849
            7           8           9          10          11          12
    1   0.0000788  -0.0002059   0.0001459  -0.0001459   0.0002059  -0.0000788
    2  -0.0000045  -0.0015826   0.0019892  -0.0019892   0.0015826   0.0000045
    3  -0.0002455  -0.0011643  -0.0013775  -0.0013775  -0.0011643  -0.0002455
           13          14
    1   0.0000438   0.0003414
    2  -0.0000889  -0.0001112
    3  -0.0004041  -0.0001849
 Max gradient component =       6.299E-03
 RMS gradient           =       1.817E-03
 Gradient time:  CPU 0.10 s  wall 0.10 s
 Geometry Optimization Parameters
   NAtoms,    NIC,     NZ,  NCons,   NDum,   NFix, NCnnct, MaxDiis
       14      92       0       1       0       0       0       0

 Cartesian Hessian Update
 Hessian updated using BFGS update


** CONSTRAINED OPTIMIZATION IN DELOCALIZED INTERNAL COORDINATES **
   Searching for a Minimum

   Optimization Cycle:   4

                       Coordinates (Angstroms)
     ATOM                X               Y               Z
      1  C         1.9608748289   -0.1223946208   -0.0669454406
      2  C         0.5725997645    0.5194279302    0.1184200981
      3  C        -0.5725997645   -0.5194279302    0.1184200981
      4  C        -1.9608748289    0.1223946208   -0.0669454406
      5  H         2.7319699155    0.6416507609   -0.1008387451
      6  H         1.9948766866   -0.6798415036   -0.9982489526
      7  H         2.1919108985   -0.8050619410    0.7454810337
      8  H         0.4045876475    1.1940449659   -0.7196263772
      9  H         0.5492256163    1.1255512055    1.0218052353
     10  H        -0.5492256163   -1.1255512055    1.0218052353
     11  H        -0.4045876475   -1.1940449659   -0.7196263772
     12  H        -2.1919108985    0.8050619410    0.7454810337
     13  H        -2.7319699155   -0.6416507609   -0.1008387451
     14  H        -1.9948766866    0.6798415036   -0.9982489526
   Point Group: c2    Number of degrees of freedom:    19


   Energy is   -155.465423755

              Constraints and their Current Values
                                        Value     Constraint
   Dihedral:        1   2   3   4     -165.001     -165.000
 Hessian updated using BFGS update

   Using Lagrange Multiplier Algorithm


 20 Hessian modes will be used to form the next step
  Hessian Eigenvalues:
    -0.882469    0.022869    0.045027    0.078632    0.083296    0.084146
     0.103407    0.146982    0.159992    0.160255    0.219508    0.222303
     0.281072    0.288467    0.349861    0.351173    0.352800    0.352808
     0.357053    1.164276

 Minimum search - taking P-RFO step
 Searching for Lamda that maximizes along the constraint modes only
 Value Taken    Lamda =   0.00000807
 Searching for Lamda that minimizes along all other modes
 Value Taken    Lamda =  -0.00057006
 Step Taken.  Stepsize is  0.142846

                             Maximum     Tolerance    Cnvgd?
         Gradient            0.004534       0.000300      NO
         Displacement        0.079936       0.001200      NO
         Energy change     -0.001471       0.000001      NO


 New Cartesian Coordinates Obtained by Inverse Iteration

 Displacement from previous Coordinates is:  0.147004
 ----------------------------------------------------------------
             Standard Nuclear Orientation (Angstroms)
    I     Atom           X                Y                Z
 ----------------------------------------------------------------
    1      C       1.9598897257    -0.1216213347    -0.0734234079
    2      C       0.5709559316     0.5210212366     0.1123281551
    3      C      -0.5709559316    -0.5210212366     0.1123281551
    4      C      -1.9598897257     0.1216213347    -0.0734234079
    5      H       2.7332508565     0.6406832644    -0.0848618421
    6      H       2.0044789996    -0.6645613118    -1.0125932986
    7      H       2.1807859094    -0.8177573142     0.7307821976
    8      H       0.3983710885     1.2194776637    -0.7052221006
    9      H       0.5527656296     1.1006929133     1.0330371482
   10      H      -0.5527656296    -1.1006929133     1.0330371482
   11      H      -0.3983710885    -1.2194776637    -0.7052221006
   12      H      -2.1807859094     0.8177573142     0.7307821976
   13      H      -2.7332508565    -0.6406832644    -0.0848618421
   14      H      -2.0044789996     0.6645613118    -1.0125932986
 ----------------------------------------------------------------
 Molecular Point Group                 C2    NOp =  2
 Largest Abelian Subgroup              C2    NOp =  2
 Nuclear Repulsion Energy =         130.21396582 hartrees
 There are       17 alpha and       17 beta electrons

                       Distance Matrix (Angstroms)
             C (  1)   C (  2)   C (  3)   C (  4)   H (  5)   H (  6)
   C (  2)  1.541632
   C (  3)  2.568892  1.545903
   C (  4)  3.927319  2.568892  1.541632
   H (  5)  1.085968  2.174563  3.508023  4.721771
   H (  6)  1.085731  2.173946  2.814057  4.149258  1.759391
   H (  7)  1.086346  2.183201  2.835951  4.321386  1.759983  1.758952
   H (  8)  2.153150  1.089043  2.153444  2.676911  2.484253  2.494727
   H (  9)  2.167557  1.088143  2.177249  2.914837  2.493155  3.067279
   H ( 10)  2.914837  2.177249  1.088143  2.167557  3.883297  3.303682
   H ( 11)  2.676911  2.153444  1.089043  2.153150  3.694875  2.485176
   H ( 12)  4.321386  2.835951  2.183201  1.086346  4.984414  4.770018
   H ( 13)  4.721771  3.508023  2.174563  1.085968  5.614672  4.827768
   H ( 14)  4.149258  2.814057  2.173946  1.085731  4.827768  4.223542
             H (  7)   H (  8)   H (  9)   H ( 10)   H ( 11)   H ( 12)
   H (  8)  3.064219
   H (  9)  2.534218  1.749141
   H ( 10)  2.764727  3.051131  2.463392
   H ( 11)  2.979184  2.565794  3.051131  1.749141
   H ( 12)  4.658134  2.979184  2.764727  2.534218  3.064219
   H ( 13)  4.984414  3.694875  3.883297  2.493155  2.484253  1.759983
   H ( 14)  4.770018  2.485176  3.303682  3.067279  2.494727  1.758952
             H ( 13)
   H ( 14)  1.759391
 
 Applying Cartesian multipole field
    Component          Value
    ---------          -----
     (2,0,0)        1.00000E-11
     (0,2,0)        2.00000E-10
     (0,0,2)       -3.00000E-10
 Nucleus-field energy     =     0.0000000045 hartrees
 Requested basis set is STO-3G
 There are 18 shells and 30 basis functions
 A cutoff of  1.0D-12 yielded    168 shell pairs
 There are       486 function pairs
 Smallest overlap matrix eigenvalue = 2.02E-01
 Guess from superposition of atomic densities
 Warning:  Energy on first SCF cycle will be non-variational
 SAD guess density has 34.000000 electrons

 -----------------------------------------------------------------------
  General SCF calculation program by
  Eric Jon Sundstrom, Paul Horn, Yuezhi Mao, Dmitri Zuev, Alec White,
  David Stuck, Shaama M.S., Shane Yost, Joonho Lee, David Small,
  Daniel Levine, Susi Lehtola, Hugh Burton, Evgeny Epifanovsky,
  Bang C. Huynh
 -----------------------------------------------------------------------
 Hartree-Fock
 A restricted SCF calculation will be
 performed using DIIS
 SCF converges when DIIS error is below 1.0e-08
 ---------------------------------------
  Cycle       Energy         DIIS error
 ---------------------------------------
    1    -154.3424544709      1.82e-01  
    2    -155.4410932669      1.09e-02  
    3    -155.4642947021      2.82e-03  
    4    -155.4657754545      3.29e-04  
    5    -155.4657946669      1.82e-05  
    6    -155.4657947337      3.29e-06  
    7    -155.4657947355      3.29e-07  
    8    -155.4657947356      5.13e-08  
    9    -155.4657947356      6.23e-09  Convergence criterion met
 ---------------------------------------
 SCF time:   CPU 0.36s  wall 0.00s 
 SCF   energy in the final basis set =     -155.4657947356
 Total energy in the final basis set =     -155.4657947356
 
 --------------------------------------------------------------
             Orbital Energies (a.u.) and Symmetries
 --------------------------------------------------------------
 
 Alpha MOs, Restricted
 -- Occupied --                  
-11.038 -11.038 -11.032 -11.032  -1.027  -0.943  -0.828  -0.759
  1 B     1 A     2 B     2 A     3 A     3 B     4 A     4 B                  
 -0.609  -0.555  -0.546  -0.536  -0.485  -0.470  -0.432  -0.430
  5 A     6 A     5 B     6 B     7 B     7 A     8 B     8 A                  
 -0.415
  9 A                                                                          
 -- Virtual --                   
  0.600   0.616   0.651   0.683   0.687   0.736   0.751   0.755
  9 B    10 A    10 B    11 A    11 B    12 A    12 B    13 A                  
  0.768   0.776   0.798   0.801   0.835
 13 B    14 A    14 B    15 A    15 B                                          
 
 Beta MOs, Restricted
 -- Occupied --                  
-11.038 -11.038 -11.032 -11.032  -1.027  -0.943  -0.828  -0.759
  1 B     1 A     2 B     2 A     3 A     3 B     4 A     4 B                  
 -0.609  -0.555  -0.546  -0.536  -0.485  -0.470  -0.432  -0.430
  5 A     6 A     5 B     6 B     7 B     7 A     8 B     8 A                  
 -0.415
  9 A                                                                          
 -- Virtual --                   
  0.600   0.616   0.651   0.683   0.687   0.736   0.751   0.755
  9 B    10 A    10 B    11 A    11 B    12 A    12 B    13 A                  
  0.768   0.776   0.798   0.801   0.835
 13 B    14 A    14 B    15 A    15 B                                          
 --------------------------------------------------------------
 
          Ground-State Mulliken Net Atomic Charges

     Atom                 Charge (a.u.)
  ----------------------------------------
      1 C                    -0.177898
      2 C                    -0.094751
      3 C                    -0.094751
      4 C                    -0.177898
      5 H                     0.057507
      6 H                     0.056456
      7 H                     0.056324
      8 H                     0.050865
      9 H                     0.051497
     10 H                     0.051497
     11 H                     0.050865
     12 H                     0.056324
     13 H                     0.057507
     14 H                     0.056456
  ----------------------------------------
  Sum of atomic charges =     0.000000

 -----------------------------------------------------------------
                    Cartesian Multipole Moments
 -----------------------------------------------------------------
    Charge (ESU x 10^10)
                -0.0000
    Dipole Moment (Debye)
         X      -0.0000      Y      -0.0000      Z      -0.0038
       Tot       0.0038
    Quadrupole Moments (Debye-Ang)
        XX     -27.3200     XY       0.1407     YY     -26.7765
        XZ      -0.0000     YZ      -0.0000     ZZ     -26.4698
    Octopole Moments (Debye-Ang^2)
       XXX       0.0000    XXY      -0.0000    XYY       0.0000
       YYY      -0.0000    XXZ      -0.0764    XYZ      -0.0706
       YYZ      -0.2563    XZZ       0.0000    YZZ      -0.0000
       ZZZ      -0.9517
    Hexadecapole Moments (Debye-Ang^3)
      XXXX    -421.8476   XXXY       4.6391   XXYY     -80.8175
      XYYY      -0.0352   YYYY     -78.1319   XXXZ       0.0000
      XXYZ       0.0000   XYYZ      -0.0000   YYYZ      -0.0000
      XXZZ     -78.0913   XYZZ      -1.7451   YYZZ     -19.4524
      XZZZ      -0.0000   YZZZ      -0.0000   ZZZZ     -50.1018
 -----------------------------------------------------------------
 Calculating analytic gradient of the SCF energy
 Gradient of SCF Energy
            1           2           3           4           5           6
    1  -0.0000216   0.0003019  -0.0003019   0.0000216  -0.0001402  -0.0001384
    2  -0.0000005  -0.0013191   0.0013191   0.0000005   0.0000242   0.0000836
    3  -0.0018901   0.0031425   0.0031425  -0.0018901  -0.0001647   0.0001036
            7           8           9          10          11          12
    1   0.0004357  -0.0008779   0.0006361  -0.0006361   0.0008779  -0.0004357
    2  -0.0002015  -0.0001785   0.0008436  -0.0008436   0.0001785   0.0002015
    3  -0.0000461  -0.0004284  -0.0007168  -0.0007168  -0.0004284  -0.0000461
           13          14
    1   0.0001402   0.0001384
    2  -0.0000242  -0.0000836
    3  -0.0001647   0.0001036
 Max gradient component =       3.142E-03
 RMS gradient           =       9.313E-04
 Gradient time:  CPU 0.10 s  wall 0.10 s
 Geometry Optimization Parameters
   NAtoms,    NIC,     NZ,  NCons,   NDum,   NFix, NCnnct, MaxDiis
       14      92       0       1       0       0       0       0

 Cartesian Hessian Update
 Hessian updated using BFGS update


** CONSTRAINED OPTIMIZATION IN DELOCALIZED INTERNAL COORDINATES **
   Searching for a Minimum

   Optimization Cycle:   5

                       Coordinates (Angstroms)
[...]
      XZZZ      -0.0000   YZZZ       0.0000   ZZZZ     -48.7632
 -----------------------------------------------------------------
 Calculating analytic gradient of the SCF energy
 Gradient of SCF Energy
            1           2           3           4           5           6
    1  -0.0000750  -0.0000959   0.0000959   0.0000750  -0.0000650  -0.0000191
    2   0.0000733  -0.0001042   0.0001042  -0.0000733  -0.0000557   0.0000755
    3   0.0000219   0.0000783   0.0000783   0.0000219   0.0000527  -0.0000451
            7           8           9          10          11          12
    1   0.0000395   0.0000126  -0.0000620   0.0000620  -0.0000126  -0.0000395
    2   0.0000211  -0.0000950   0.0000125  -0.0000125   0.0000950  -0.0000211
    3  -0.0000315  -0.0000243  -0.0000520  -0.0000520  -0.0000243  -0.0000315
           13          14
    1   0.0000650   0.0000191
    2   0.0000557  -0.0000755
    3   0.0000527  -0.0000451
 Max gradient component =       1.042E-04
 RMS gradient           =       5.990E-05
 Gradient time:  CPU 0.10 s  wall 0.10 s
 Geometry Optimization Parameters
   NAtoms,    NIC,     NZ,  NCons,   NDum,   NFix, NCnnct, MaxDiis
       14      92       0       1       0       0       0       0

 Cartesian Hessian Update
 Hessian updated using BFGS update


** CONSTRAINED OPTIMIZATION IN DELOCALIZED INTERNAL COORDINATES **
   Searching for a Minimum

   Optimization Cycle:   7

                       Coordinates (Angstroms)
     ATOM                X               Y               Z
      1  C         1.5957514892    1.1547117488    0.0001432446
      2  C         0.7595967303   -0.1398705666    0.0001433571
      3  C        -0.7595967303    0.1398705666    0.0001433571
      4  C        -1.5957514892   -1.1547117488    0.0001432446
      5  H         2.6568104190    0.9238488261    0.0135555671
      6  H         1.3684921142    1.7599234945    0.8727845383
      7  H         1.3878932411    1.7469986577   -0.8861213541
      8  H         1.0152454944   -0.7342328736    0.8755370822
      9  H         1.0150066978   -0.7332390586   -0.8759955836
     10  H        -1.0150066978    0.7332390586   -0.8759955836
     11  H        -1.0152454944    0.7342328736    0.8755370822
     12  H        -1.3878932411   -1.7469986577   -0.8861213541
     13  H        -2.6568104190   -0.9238488261    0.0135555671
     14  H        -1.3684921142   -1.7599234945    0.8727845383
   Point Group: c2    Number of degrees of freedom:    19


   Energy is   -155.466641697

              Constraints and their Current Values
                                        Value     Constraint
   Dihedral:        1   2   3   4      180.000      180.000
 Hessian updated using BFGS update

 18 Hessian modes will be used to form the next step
  Hessian Eigenvalues:
     0.019145    0.038166    0.078439    0.083688    0.084114    0.104931
     0.117478    0.160074    0.175987    0.200398    0.247106    0.286048
     0.325140    0.350673    0.351277    0.352753    0.356232    0.382960

 Minimum search - taking simple RFO step
 Searching for Lamda that Minimizes Along All modes
 Value Taken    Lamda =  -0.00000117
 Step Taken.  Stepsize is  0.004144

                             Maximum     Tolerance    Cnvgd?
         Gradient           0.000296      0.000300     YES
         Displacement       0.002856      0.001200      NO
         Energy change     -0.000003      0.000001      NO


 New Cartesian Coordinates Obtained by Inverse Iteration

 Displacement from previous Coordinates is:  0.004361
 ----------------------------------------------------------------
             Standard Nuclear Orientation (Angstroms)
    I     Atom           X                Y                Z
 ----------------------------------------------------------------
    1      C       1.5961345268     1.1547406804     0.0000508627
    2      C       0.7597846335    -0.1396851562     0.0000509752
    3      C      -0.7597846335     0.1396851562     0.0000509752
    4      C      -1.5961345268    -1.1547406804     0.0000508627
    5      H       2.6572986674     0.9241318916     0.0129204687
    6      H       1.3691480870     1.7594741191     0.8730726219
    7      H       1.3878113801     1.7472925730    -0.8859083042
    8      H       1.0157212981    -0.7335359595     0.8756871036
    9      H       1.0152850813    -0.7333518552    -0.8758268762
   10      H      -1.0152850813     0.7333518552    -0.8758268762
   11      H      -1.0157212981     0.7335359595     0.8756871036
   12      H      -1.3878113801    -1.7472925730    -0.8859083042
   13      H      -2.6572986674    -0.9241318916     0.0129204687
   14      H      -1.3691480870    -1.7594741191     0.8730726219
 ----------------------------------------------------------------
 Molecular Point Group                 C2    NOp =  2
 Largest Abelian Subgroup              C2    NOp =  2
 Nuclear Repulsion Energy =         130.23994218 hartrees
 There are       17 alpha and       17 beta electrons

                       Distance Matrix (Angstroms)
             C (  1)   C (  2)   C (  3)   C (  4)   H (  5)   H (  6)
   C (  2)  1.541110
   C (  3)  2.565286  1.545037
   C (  4)  3.940087  2.565286  1.541110
   H (  5)  1.086009  2.175415  3.505992  4.734297
   H (  6)  1.085998  2.177222  2.813936  4.248260  1.759827
   H (  7)  1.086020  2.177160  2.825154  4.255661  1.759854  1.759122
   H (  8)  2.160835  1.088532  2.163718  2.786744  2.487369  2.517939
   H (  9)  2.160889  1.088523  2.163383  2.786439  2.496664  3.065624
   H ( 10)  2.786439  2.163383  1.088523  2.160889  3.783403  3.130032
   H ( 11)  2.786744  2.163718  1.088532  2.160835  3.777799  2.596181
   H ( 12)  4.255661  2.825154  2.177160  1.086020  4.930245  4.795024
   H ( 13)  4.734297  3.505992  2.175415  1.086009  5.626813  4.914659
   H ( 14)  4.248260  2.813936  2.177222  1.085998  4.914659  4.458841
             H (  7)   H (  8)   H (  9)   H ( 10)   H ( 11)   H ( 12)
   H (  8)  3.065319
   H (  9)  2.508480  1.751514
   H ( 10)  2.608266  3.056885  2.504882
   H ( 11)  3.147680  2.505805  3.056885  1.751514
   H ( 12)  4.462758  3.147680  2.608266  2.508480  3.065319
   H ( 13)  4.930245  3.777799  3.783403  2.496664  2.487369  1.759854
   H ( 14)  4.795024  2.596181  3.130032  3.065624  2.517939  1.759122
             H ( 13)
   H ( 14)  1.759827
 
 Applying Cartesian multipole field
    Component          Value
    ---------          -----
     (2,0,0)        1.00000E-11
     (0,2,0)        2.00000E-10
     (0,0,2)       -3.00000E-10
 Nucleus-field energy     =     0.0000000188 hartrees
 Requested basis set is STO-3G
 There are 18 shells and 30 basis functions
 A cutoff of  1.0D-12 yielded    168 shell pairs
 There are       486 function pairs
 Smallest overlap matrix eigenvalue = 2.02E-01
 Guess from superposition of atomic densities
 Warning:  Energy on first SCF cycle will be non-variational
 SAD guess density has 34.000000 electrons

 -----------------------------------------------------------------------
  General SCF calculation program by
  Eric Jon Sundstrom, Paul Horn, Yuezhi Mao, Dmitri Zuev, Alec White,
  David Stuck, Shaama M.S., Shane Yost, Joonho Lee, David Small,
  Daniel Levine, Susi Lehtola, Hugh Burton, Evgeny Epifanovsky,
  Bang C. Huynh
 -----------------------------------------------------------------------
 Hartree-Fock
 A restricted SCF calculation will be
 performed using DIIS
 SCF converges when DIIS error is below 1.0e-08
 ---------------------------------------
  Cycle       Energy         DIIS error
 ---------------------------------------
    1    -154.3449210281      1.82e-01  
    2    -155.4419620834      1.09e-02  
    3    -155.4651454537      2.82e-03  
    4    -155.4666234108      3.28e-04  
    5    -155.4666424305      1.80e-05  
    6    -155.4666424964      3.21e-06  
    7    -155.4666424982      3.18e-07  
    8    -155.4666424982      4.87e-08  
    9    -155.4666424982      5.95e-09  Convergence criterion met
 ---------------------------------------
 SCF time:   CPU 0.36s  wall 0.00s 
 SCF   energy in the final basis set =     -155.4666424982
 Total energy in the final basis set =     -155.4666424982
 
 --------------------------------------------------------------
             Orbital Energies (a.u.) and Symmetries
 --------------------------------------------------------------
 
 Alpha MOs, Restricted
 -- Occupied --                  
-11.038 -11.038 -11.032 -11.032  -1.027  -0.943  -0.827  -0.758
  1 B     1 A     2 B     2 A     3 A     3 B     4 A     4 B                  
 -0.610  -0.555  -0.542  -0.539  -0.485  -0.470  -0.433  -0.431
  5 A     6 A     5 B     6 B     7 B     7 A     8 B     8 A                  
 -0.415
  9 A                                                                          
 -- Virtual --                   
  0.601   0.617   0.652   0.684   0.687   0.737   0.751   0.765
  9 B    10 A    10 B    11 A    11 B    12 A    12 B    13 A                  
  0.768   0.768   0.798   0.800   0.832
 14 A    13 B    15 A    14 B    15 B                                          
 
 Beta MOs, Restricted
 -- Occupied --                  
-11.038 -11.038 -11.032 -11.032  -1.027  -0.943  -0.827  -0.758
  1 B     1 A     2 B     2 A     3 A     3 B     4 A     4 B                  
 -0.610  -0.555  -0.542  -0.539  -0.485  -0.470  -0.433  -0.431
  5 A     6 A     5 B     6 B     7 B     7 A     8 B     8 A                  
 -0.415
  9 A                                                                          
 -- Virtual --                   
  0.601   0.617   0.652   0.684   0.687   0.737   0.751   0.765
  9 B    10 A    10 B    11 A    11 B    12 A    12 B    13 A                  
  0.768   0.768   0.798   0.800   0.832
 14 A    13 B    15 A    14 B    15 B                                          
 --------------------------------------------------------------
 
          Ground-State Mulliken Net Atomic Charges

     Atom                 Charge (a.u.)
  ----------------------------------------
      1 C                    -0.178149
      2 C                    -0.094375
      3 C                    -0.094375
      4 C                    -0.178149
      5 H                     0.057557
      6 H                     0.056428
      7 H                     0.056406
      8 H                     0.051052
      9 H                     0.051082
     10 H                     0.051082
     11 H                     0.051052
     12 H                     0.056406
     13 H                     0.057557
     14 H                     0.056428
  ----------------------------------------
  Sum of atomic charges =     0.000000

 -----------------------------------------------------------------
                    Cartesian Multipole Moments
 -----------------------------------------------------------------
    Charge (ESU x 10^10)
                -0.0000
    Dipole Moment (Debye)
         X       0.0000      Y       0.0000      Z      -0.0005
       Tot       0.0005
    Quadrupole Moments (Debye-Ang)
        XX     -27.0528     XY      -0.3111     YY     -27.0738
        XZ      -0.0000     YZ      -0.0000     ZZ     -26.4548
    Octopole Moments (Debye-Ang^2)
       XXX       0.0000    XXY       0.0000    XYY      -0.0000
       YYY      -0.0000    XXZ       0.0240    XYZ      -0.0141
       YYZ       0.0090    XZZ      -0.0000    YZZ      -0.0000
       ZZZ      -0.0360
    Hexadecapole Moments (Debye-Ang^3)
      XXXX    -315.6193   XXXY     -79.0796   XXYY     -86.1355
      XYYY     -79.2513   YYYY    -177.1164   XXXZ      -0.0000
      XXYZ      -0.0000   XYYZ      -0.0000   YYYZ      -0.0000
      XXZZ     -62.8400   XYZZ     -25.8247   YYZZ     -34.2821
      XZZZ      -0.0000   YZZZ      -0.0000   ZZZZ     -48.7639
 -----------------------------------------------------------------
 Calculating analytic gradient of the SCF energy
 Gradient of SCF Energy
            1           2           3           4           5           6
    1   0.0000008   0.0000232  -0.0000232  -0.0000008  -0.0000088  -0.0000263
    2   0.0000087  -0.0000261   0.0000261  -0.0000087  -0.0000042   0.0000319
    3   0.0000604   0.0000057   0.0000057   0.0000604   0.0000507  -0.0000399
            7           8           9          10          11          12
    1   0.0000319   0.0000627  -0.0000596   0.0000596  -0.0000627  -0.0000319
    2  -0.0000156  -0.0000270   0.0000191  -0.0000191   0.0000270   0.0000156
    3  -0.0000310  -0.0000220  -0.0000239  -0.0000239  -0.0000220  -0.0000310
           13          14
    1   0.0000088   0.0000263
    2   0.0000042  -0.0000319
    3   0.0000507  -0.0000399
 Max gradient component =       6.269E-05
 RMS gradient           =       3.294E-05
 Gradient time:  CPU 0.10 s  wall 0.10 s
 Geometry Optimization Parameters
   NAtoms,    NIC,     NZ,  NCons,   NDum,   NFix, NCnnct, MaxDiis
       14      92       0       1       0       0       0       0

 Cartesian Hessian Update
 Hessian updated using BFGS update


** CONSTRAINED OPTIMIZATION IN DELOCALIZED INTERNAL COORDINATES **
   Searching for a Minimum

   Optimization Cycle:   8

                       Coordinates (Angstroms)
     ATOM                X               Y               Z
      1  C         1.5961345268    1.1547406804    0.0000508627
      2  C         0.7597846335   -0.1396851562    0.0000509752
      3  C        -0.7597846335    0.1396851562    0.0000509752
      4  C        -1.5961345268   -1.1547406804    0.0000508627
      5  H         2.6572986674    0.9241318916    0.0129204687
      6  H         1.3691480870    1.7594741191    0.8730726219
      7  H         1.3878113801    1.7472925730   -0.8859083042
      8  H         1.0157212981   -0.7335359595    0.8756871036
      9  H         1.0152850813   -0.7333518552   -0.8758268762
     10  H        -1.0152850813    0.7333518552   -0.8758268762
     11  H        -1.0157212981    0.7335359595    0.8756871036
     12  H        -1.3878113801   -1.7472925730   -0.8859083042
     13  H        -2.6572986674   -0.9241318916    0.0129204687
     14  H        -1.3691480870   -1.7594741191    0.8730726219
   Point Group: c2    Number of degrees of freedom:    19


   Energy is   -155.466642498

              Constraints and their Current Values
                                        Value     Constraint
   Dihedral:        1   2   3   4      180.000      180.000
 Hessian updated using BFGS update

 18 Hessian modes will be used to form the next step
  Hessian Eigenvalues:
     0.016101    0.021660    0.078524    0.083716    0.084207    0.105965
     0.121656    0.160259    0.175791    0.197500    0.247034    0.286257
     0.343745    0.350951    0.351294    0.352760    0.358553    0.455799

 Minimum search - taking simple RFO step
 Searching for Lamda that Minimizes Along All modes
 Value Taken    Lamda =  -0.00000102
 Step Taken.  Stepsize is  0.007457

                             Maximum     Tolerance    Cnvgd?
         Gradient           0.000114      0.000300     YES
         Displacement       0.004932      0.001200      NO
         Energy change     -0.000001      0.000001     YES


                       Distance Matrix (Angstroms)
             C (  1)   C (  2)   C (  3)   C (  4)   H (  5)   H (  6)
   C (  2)  1.541110
   C (  3)  2.565286  1.545037
   C (  4)  3.940087  2.565286  1.541110
   H (  5)  1.086009  2.175415  3.505992  4.734297
   H (  6)  1.085998  2.177222  2.813936  4.248260  1.759827
   H (  7)  1.086020  2.177160  2.825154  4.255661  1.759854  1.759122
   H (  8)  2.160835  1.088532  2.163718  2.786744  2.487369  2.517939
   H (  9)  2.160889  1.088523  2.163383  2.786439  2.496664  3.065624
   H ( 10)  2.786439  2.163383  1.088523  2.160889  3.783403  3.130032
   H ( 11)  2.786744  2.163718  1.088532  2.160835  3.777799  2.596181
   H ( 12)  4.255661  2.825154  2.177160  1.086020  4.930245  4.795024
   H ( 13)  4.734297  3.505992  2.175415  1.086009  5.626813  4.914659
   H ( 14)  4.248260  2.813936  2.177222  1.085998  4.914659  4.458841
             H (  7)   H (  8)   H (  9)   H ( 10)   H ( 11)   H ( 12)
   H (  8)  3.065319
   H (  9)  2.508480  1.751514
   H ( 10)  2.608266  3.056885  2.504882
   H ( 11)  3.147680  2.505805  3.056885  1.751514
   H ( 12)  4.462758  3.147680  2.608266  2.508480  3.065319
   H ( 13)  4.930245  3.777799  3.783403  2.496664  2.487369  1.759854
   H ( 14)  4.795024  2.596181  3.130032  3.065624  2.517939  1.759122
             H ( 13)
   H ( 14)  1.759827
 
 Final energy is   -155.466642498185     


 ******************************
 **  OPTIMIZATION CONVERGED  **
 ******************************

                       Coordinates (Angstroms)
     ATOM                X               Y               Z
      1  C         1.5961345268    1.1547406804    0.0000508627
      2  C         0.7597846335   -0.1396851562    0.0000509752
      3  C        -0.7597846335    0.1396851562    0.0000509752
      4  C        -1.5961345268   -1.1547406804    0.0000508627
      5  H         2.6572986674    0.9241318916    0.0129204687
      6  H         1.3691480870    1.7594741191    0.8730726219
      7  H         1.3878113801    1.7472925730   -0.8859083042
      8  H         1.0157212981   -0.7335359595    0.8756871036
      9  H         1.0152850813   -0.7333518552   -0.8758268762
     10  H        -1.0152850813    0.7333518552   -0.8758268762
     11  H        -1.0157212981    0.7335359595    0.8756871036
     12  H        -1.3878113801   -1.7472925730   -0.8859083042
     13  H        -2.6572986674   -0.9241318916    0.0129204687
     14  H        -1.3691480870   -1.7594741191    0.8730726219

Z-matrix Print:
$molecule
0 1
C 
H  1 1.088523
H  1 1.088532 2 107.130506
C  1 1.541110 2 109.311603 3 118.334093 0
H  4 1.085998 1 110.749481 2 -179.221012 0
H  4 1.086009 1 110.604959 2 -59.223355 0
H  4 1.086020 1 110.743227 2 60.771242 0
C  1 1.545037 2 109.236542 3 -118.240563 0
H  8 1.088523 1 109.236542 2 -63.089682 0
H  8 1.088532 1 109.262162 2 -179.988093 0
C  8 1.541110 1 112.449765 2 58.455154 0
H  11 1.085998 8 110.749481 1 59.276945 0
H  11 1.086009 8 110.604959 1 179.274601 0
H  11 1.086020 8 110.743227 1 -60.730801 0
$end

PES scan, value:  180.0000 energy: -155.4666424982
------- Summary of potential scan: ------ 
 -180.0000      -155.4666480938
 -165.0000      -155.4658781618
 -150.0000      -155.4639988816
 -135.0000      -155.4620650339
 -120.0000      -155.4612373187
 -105.0000      -155.4620092434
  -90.0000      -155.4637468414
  -75.0000      -155.4650929797
  -60.0000      -155.4651809285
  -45.0000      -155.4638122986
  -30.0000      -155.4613127819
  -15.0000      -155.4588065276
    0.0000      -155.4577196449
   15.0000      -155.4588065140
   30.0000      -155.4613127784
   45.0000      -155.4638126846
   60.0000      -155.4651799807
   75.0000      -155.4650930094
   90.0000      -155.4637471245
  105.0000      -155.4620088131
  120.0000      -155.4612373224
  135.0000      -155.4620655754
  150.0000      -155.4639993537
  165.0000      -155.4658822402
  180.0000      -155.4666424982
----------------------------------------- 
 Total job time:  113.57s(wall), 113.39s(cpu) 
 Wed Feb  8 13:17:21 2023

        *************************************************************
        *                                                           *
        *  Thank you very much for using Q-Chem.  Have a nice day.  *
        *                                                           *
        *************************************************************


