Jobname.Temp
SP        R                             6-31G               
Number of atoms                            I                8
Charge                                     I                0
Multiplicity                               I                1
Number of electrons                        I               18
Number of alpha electrons                  I                9
Number of beta electrons                   I                9
Atomic numbers                             I   N=           8
           1           6           1           1           6           1
           1           1
Current cartesian coordinates              R   N=          24
 -2.18604605E+00  1.10722930E+00  1.57896107E+00 -1.42151308E+00 -1.08559108E-05
 -6.07684300E-06 -2.18610971E+00 -1.92100086E+00  1.69311838E-01 -2.18595982E+00
  8.13881395E-01 -1.74813342E+00  1.42149335E+00 -2.29240985E-05  3.20430029E-05
  2.18603590E+00  1.92089323E+00 -1.70645495E-01  2.18633227E+00 -8.12779334E-01
  1.74871245E+00  2.18586576E+00 -1.10802106E+00 -1.57836224E+00
Nuclear charges                            R   N=           8
  1.00000000E+00  6.00000000E+00  1.00000000E+00  1.00000000E+00  6.00000000E+00
  1.00000000E+00  1.00000000E+00  1.00000000E+00
Number of basis functions                  I               30
Number of contracted shells                I               18
Number of primitive shells                 I               44
Highest angular momentum                   I                1
Largest degree of contraction              I                6
Shell types                                I   N=          18
           0           0           0          -1          -1           0
           0           0           0           0          -1          -1
           0           0           0           0           0           0
Number of primitives per shell             I   N=          18
           3           1           6           3           1           3
           1           3           1           6           3           1
           3           1           3           1           3           1
Shell to atom map                          I   N=          18
           1           1           2           2           2           3
           3           4           4           5           5           5
           6           6           7           7           8           8
Primitive exponents                        R   N=          44
  1.87311370E+01  2.82539370E+00  6.40121700E-01  1.61277800E-01  3.04752490E+03
  4.57369510E+02  1.03948690E+02  2.92101550E+01  9.28666300E+00  3.16392700E+00
  7.86827240E+00  1.88128850E+00  5.44249300E-01  1.68714400E-01  1.87311370E+01
  2.82539370E+00  6.40121700E-01  1.61277800E-01  1.87311370E+01  2.82539370E+00
  6.40121700E-01  1.61277800E-01  3.04752490E+03  4.57369510E+02  1.03948690E+02
  2.92101550E+01  9.28666300E+00  3.16392700E+00  7.86827240E+00  1.88128850E+00
  5.44249300E-01  1.68714400E-01  1.87311370E+01  2.82539370E+00  6.40121700E-01
  1.61277800E-01  1.87311370E+01  2.82539370E+00  6.40121700E-01  1.61277800E-01
  1.87311370E+01  2.82539370E+00  6.40121700E-01  1.61277800E-01
Contraction coefficients                   R   N=          44
  3.34945995E-02  2.34726947E-01  8.13757318E-01  1.00000000E+00  1.83470016E-03
  1.40373012E-02  6.88426061E-02  2.32184421E-01  4.67941342E-01  3.62312032E-01
 -1.19332409E-01 -1.60854212E-01  1.14345648E+00  1.00000000E+00  3.34945995E-02
  2.34726947E-01  8.13757318E-01  1.00000000E+00  3.34945995E-02  2.34726947E-01
  8.13757318E-01  1.00000000E+00  1.83470016E-03  1.40373012E-02  6.88426061E-02
  2.32184421E-01  4.67941342E-01  3.62312032E-01 -1.19332409E-01 -1.60854212E-01
  1.14345648E+00  1.00000000E+00  3.34945995E-02  2.34726947E-01  8.13757318E-01
  1.00000000E+00  3.34945995E-02  2.34726947E-01  8.13757318E-01  1.00000000E+00
  3.34945995E-02  2.34726947E-01  8.13757318E-01  1.00000000E+00
P(S=P) Contraction coefficients            R   N=          44
  0.00000000E+00  0.00000000E+00  0.00000000E+00  0.00000000E+00  0.00000000E+00
  0.00000000E+00  0.00000000E+00  0.00000000E+00  0.00000000E+00  0.00000000E+00
  6.89990956E-02  3.16423980E-01  7.44308252E-01  1.00000000E+00  0.00000000E+00
  0.00000000E+00  0.00000000E+00  0.00000000E+00  0.00000000E+00  0.00000000E+00
  0.00000000E+00  0.00000000E+00  0.00000000E+00  0.00000000E+00  0.00000000E+00
  0.00000000E+00  0.00000000E+00  0.00000000E+00  6.89990956E-02  3.16423980E-01
  7.44308252E-01  1.00000000E+00  0.00000000E+00  0.00000000E+00  0.00000000E+00
  0.00000000E+00  0.00000000E+00  0.00000000E+00  0.00000000E+00  0.00000000E+00
  0.00000000E+00  0.00000000E+00  0.00000000E+00  0.00000000E+00
Coordinates of each shell                  R   N=          54
 -2.18604605E+00  1.10722930E+00  1.57896107E+00 -2.18604605E+00  1.10722930E+00
  1.57896107E+00 -1.42151308E+00 -1.08559108E-05 -6.07684300E-06 -1.42151308E+00
 -1.08559108E-05 -6.07684300E-06 -1.42151308E+00 -1.08559108E-05 -6.07684300E-06
 -2.18610971E+00 -1.92100086E+00  1.69311838E-01 -2.18610971E+00 -1.92100086E+00
  1.69311838E-01 -2.18595982E+00  8.13881395E-01 -1.74813342E+00 -2.18595982E+00
  8.13881395E-01 -1.74813342E+00  1.42149335E+00 -2.29240985E-05  3.20430029E-05
  1.42149335E+00 -2.29240985E-05  3.20430029E-05  1.42149335E+00 -2.29240985E-05
  3.20430029E-05  2.18603590E+00  1.92089323E+00 -1.70645495E-01  2.18603590E+00
  1.92089323E+00 -1.70645495E-01  2.18633227E+00 -8.12779334E-01  1.74871245E+00
  2.18633227E+00 -8.12779334E-01  1.74871245E+00  2.18586576E+00 -1.10802106E+00
 -1.57836224E+00  2.18586576E+00 -1.10802106E+00 -1.57836224E+00
Overlap Matrix                             R   N=         465
  1.00000000E+00  6.58292049E-01  1.00000000E+00  3.16338304E-02  9.13325762E-02
  1.00000000E+00  2.68807041E-01  4.72617135E-01  2.19058872E-01  1.00000000E+00
 -1.34298940E-01 -9.78789722E-02  7.06196933E-17  2.38731974E-17  1.00000000E+00
  1.94499368E-01  1.41753898E-01  2.23151777E-22  1.43420700E-22  1.10359322E-37
  1.00000000E+00  2.77363596E-01  2.02146522E-01 -1.10851483E-22 -4.65556269E-23
  5.51796610E-38  1.31210945E-42  1.00000000E+00  3.73928263E-01  7.01004023E-01
  1.84261053E-01  8.12273068E-01  0.00000000E+00 -1.45803671E-21  3.49940680E-22
  1.00000000E+00 -1.89572532E-01 -2.15175944E-01  3.07970200E-17  0.00000000E+00
  5.69754058E-01  0.00000000E+00  0.00000000E+00  0.00000000E+00  1.00000000E+00
  2.74549730E-01  3.11630048E-01  0.00000000E+00 -1.24713194E-21  0.00000000E+00
  5.69754058E-01  0.00000000E+00  0.00000000E+00  0.00000000E+00  1.00000000E+00
  3.91518497E-01  4.44396460E-01  3.47962360E-23 -5.83578006E-23  0.00000000E+00
  0.00000000E+00  5.69754058E-01  0.00000000E+00  0.00000000E+00  0.00000000E+00
  1.00000000E+00  1.94106586E-02  1.52260923E-01  3.16365011E-02  2.68818928E-01
 -1.34316910E-01 -3.37460863E-01  2.97441265E-02  3.73935878E-01 -1.89592192E-01
 -4.76335740E-01  4.19846924E-02  1.00000000E+00  1.52260923E-01  4.06686972E-01
  9.13347033E-02  4.72625760E-01 -9.78889858E-02 -2.45938517E-01  2.16772585E-02
  7.01012666E-01 -2.15196516E-01 -5.40664627E-01  4.76547025E-02  6.58292049E-01
  1.00000000E+00  1.94213550E-02  1.52294384E-01  3.16495532E-02  2.68877010E-01
 -1.34323732E-01  1.43011983E-01 -3.07169846E-01  3.73973082E-01 -1.89573948E-01
  2.01835861E-01 -4.33515353E-01  1.94177432E-02  1.52283087E-01  1.00000000E+00
  1.52294384E-01  4.06742010E-01  9.13450964E-02  4.72667903E-01 -9.78788954E-02
  1.04209842E-01 -2.23828244E-01  7.01054894E-01 -2.15167290E-01  2.29084616E-01
 -4.92041890E-01  1.52283087E-01  4.06723428E-01  6.58292049E-01  1.00000000E+00
  3.25379592E-05  1.31848617E-02  3.68767694E-07  8.92089809E-03  2.16758004E-02
 -9.20109172E-08  2.90635351E-07  4.94720388E-02  1.11390414E-01 -4.72837635E-07
  1.49355463E-06  3.25335659E-05  1.31843551E-02  3.25579652E-05  1.31871683E-02
  1.00000000E+00  6.78885382E-03  1.03183956E-01  8.92089809E-03  1.34176468E-01
  2.02405731E-01 -8.59185665E-07  2.71391411E-06  2.92864331E-01  5.12945028E-01
 -2.17738407E-06  6.87771411E-06  6.78835928E-03  1.03180829E-01  6.79110541E-03
  1.03198191E-01  2.19058872E-01  1.00000000E+00 -1.30490007E-02 -9.53749503E-02
 -2.16758004E-02 -2.02405731E-01 -2.69045720E-01  1.44611263E-06 -4.56784331E-06
 -2.29072721E-01 -2.21242582E-01  1.77183624E-06 -5.59670810E-06 -1.30482656E-02
 -9.53736532E-02 -1.30530843E-02 -9.53862378E-02 -1.24416648E-16  1.19269559E-16
  1.00000000E+00  4.00509420E-03  2.92731733E-02  9.20109172E-08  8.59185665E-07
  1.44611263E-06  7.16274284E-02  1.93898931E-11  9.72383522E-07  1.77183624E-06
  1.96164067E-01  2.37572886E-11 -6.94794570E-03 -5.07846012E-02  2.94500334E-03
  2.15207979E-02 -6.52691019E-22 -1.63368653E-21 -1.65993837E-36  1.00000000E+00
  5.71121856E-03  4.17432107E-02 -2.90635351E-07 -2.71391411E-06 -4.56784331E-06
  1.93898931E-11  7.16274283E-02 -3.07147276E-06 -5.59670810E-06  2.37572886E-11
  1.96164066E-01  6.12264619E-04  4.47522417E-03 -6.32550167E-03 -4.62240029E-02
 -3.89065840E-21  5.94324413E-23  1.15039313E-36  0.00000000E+00  1.00000000E+00
  6.91105621E-02  2.51540849E-01  4.94720388E-02  2.92864331E-01  2.29072721E-01
 -9.72383522E-07  3.07147276E-06  5.05689354E-01  5.90524239E-01 -2.50669760E-06
  7.91791842E-06  6.91082503E-02  2.51535729E-01  6.91210867E-02  2.51564158E-01
  1.84261053E-01  8.12273068E-01  1.91107787E-16  0.00000000E+00 -4.02700476E-22
  1.00000000E+00 -1.64501932E-01 -3.64331392E-01 -1.11390414E-01 -5.12945028E-01
 -2.21242582E-01  1.77183624E-06 -5.59670810E-06 -5.90524239E-01 -1.83901744E-01
  2.92722337E-06 -9.24623529E-06 -1.64499318E-01 -3.64330405E-01 -1.64523116E-01
 -3.64356444E-01 -3.05303824E-17  1.63464077E-16  5.69754058E-01  0.00000000E+00
  0.00000000E+00  0.00000000E+00  1.00000000E+00  5.04901293E-02  1.11823240E-01
  4.72837635E-07  2.17738407E-06  1.77183624E-06  1.96164067E-01  2.37572886E-11
  2.50669760E-06  2.92722337E-06  5.05689354E-01  3.92490508E-11 -8.75926630E-02
 -1.93998801E-01  3.71192829E-02  8.22051649E-02  1.39175675E-22  0.00000000E+00
  0.00000000E+00  5.69754058E-01  0.00000000E+00  2.78334068E-21  0.00000000E+00
  1.00000000E+00  7.19983474E-02  1.59458663E-01 -1.49355463E-06 -6.87771411E-06
 -5.59670810E-06  2.37572886E-11  1.96164066E-01 -7.91791842E-06 -9.24623529E-06
  3.92490508E-11  5.05689354E-01  7.71881226E-03  1.70954995E-02 -7.97276126E-02
 -1.76566491E-01 -9.40438425E-22  1.01984350E-22  0.00000000E+00  0.00000000E+00
  5.69754058E-01  0.00000000E+00  0.00000000E+00  0.00000000E+00  1.00000000E+00
  4.44801048E-04  3.30831352E-02  3.25373357E-05  6.78878364E-03  1.30488983E-02
  6.94811973E-03 -6.17221397E-04  6.91102341E-02  1.64501586E-01  8.75918168E-02
 -7.78103222E-03  1.24837670E-05  7.73796590E-03  4.46228038E-04  3.31262478E-02
  3.16347891E-02  2.68811308E-01  1.34303057E-01  3.37436962E-01 -2.99820008E-02
  3.73930997E-01  1.89576296E-01  4.76311191E-01 -4.23212752E-02  1.00000000E+00
  3.30831352E-02  1.58555089E-01  1.31847898E-02  1.03183512E-01  9.53747805E-02
  5.07840107E-02 -4.51128928E-03  2.51540122E-01  3.64331306E-01  1.93994732E-01
 -1.72331082E-02  7.73796590E-03  6.45040437E-02  3.31262478E-02  1.58682776E-01
  9.13333398E-02  4.72620231E-01  9.78808663E-02  2.45926063E-01 -2.18510604E-02
  7.01007125E-01  2.15179590E-01  5.40639570E-01 -4.80369902E-02  6.58292049E-01
  1.00000000E+00  4.45562631E-04  3.31061546E-02  3.25060767E-05  6.78526424E-03
  1.30430994E-02 -2.93832440E-03  6.32197539E-03  6.90937795E-02  1.64475829E-01
 -3.70527992E-02  7.97212469E-02  4.44424783E-04  3.30717538E-02  1.24857017E-05
  7.73845319E-03  3.16372947E-02  2.68822459E-01  1.34361489E-01 -1.42779294E-01
  3.07195799E-01  3.73938140E-01  1.89653421E-01 -2.01535290E-01  4.33611853E-01
  1.94131321E-02  1.52268662E-01  1.00000000E+00  3.31061546E-02  1.58623274E-01
  1.31811837E-02  1.03161256E-01  9.53614023E-02 -2.14828337E-02  4.62215630E-02
  2.51503678E-01  3.64308447E-01 -8.20707079E-02  1.76579889E-01  3.30717538E-02
  1.58521370E-01  7.73845319E-03  6.45065616E-02  9.13353353E-02  4.72628323E-01
  9.79205582E-02 -1.04055324E-01  2.23879509E-01  7.01015234E-01  2.15265495E-01
 -2.28751972E-01  4.92169716E-01  1.52268662E-01  4.06699701E-01  6.58292049E-01
  1.00000000E+00  1.24907266E-05  7.73971857E-03  3.25608907E-05  6.79143461E-03
  1.30534579E-02 -4.00938334E-03 -5.71135075E-03  6.91226254E-02  1.64523398E-01
 -5.05335347E-02 -7.19848208E-02  4.46059058E-04  3.31211468E-02  4.45212604E-04
  3.30955777E-02  3.16405310E-02  2.68836862E-01  1.34287755E-01 -1.94657187E-01
 -2.77298112E-01  3.73947366E-01  1.89542433E-01 -2.74751759E-01 -3.91396513E-01
  1.94189479E-02  1.52286855E-01  1.94150873E-02  1.52274779E-01  1.00000000E+00
  7.73971857E-03  6.45130997E-02  1.31875055E-02  1.03200272E-01  9.53862554E-02
 -2.92979887E-02 -4.17348693E-02  2.51567565E-01  3.64353870E-01 -1.11911675E-01
 -1.59417739E-01  3.31211468E-02  1.58667672E-01  3.30955777E-02  1.58591947E-01
  9.13379125E-02  4.72638773E-01  9.78630877E-02 -1.41857710E-01 -2.02082829E-01
  7.01025705E-01  2.15137408E-01 -3.11853025E-01 -4.44248971E-01  1.52286855E-01
  4.06729626E-01  1.52274779E-01  4.06709763E-01  6.58292049E-01  1.00000000E+00
Core Hamiltonian Matrix                    R   N=         465
 -5.80365582E+00 -4.12007594E+00 -5.66415350E+00 -6.80235800E-01 -1.95959286E+00
 -2.22351723E+01 -2.26121759E+00 -4.12899418E+00 -4.60019882E+00 -9.07495730E+00
  9.69292461E-01  5.16617635E-01 -6.10249587E-02 -4.44512067E-01 -8.47950091E+00
 -1.48174532E+00 -1.07113162E+00 -2.97187398E-06 -2.03297525E-05  2.83810070E-06
 -8.28297315E+00 -2.11302017E+00 -1.52745046E+00  4.00893295E-06  2.59777344E-05
 -8.47048057E-06  9.73791645E-06 -8.28297197E+00 -2.67771357E+00 -4.95900884E+00
 -3.95341268E+00 -7.29535472E+00 -4.58505164E-01 -1.77686209E-05  2.00212911E-05
 -7.80014860E+00  1.12491423E+00  7.93024617E-01 -1.02518233E-02 -3.33596656E-01
 -4.57099194E+00  1.80467863E-06 -4.61683183E-06 -7.80794631E-01 -6.57045410E+00
 -1.71398933E+00 -1.70870149E+00 -4.99250680E-07 -1.23515834E-05  1.80467863E-06
 -4.34294184E+00  5.19146614E-06 -1.61950697E-05  1.31066969E-06 -5.83333941E+00
 -2.44421044E+00 -2.43665266E+00  6.73457929E-07  1.32940796E-05 -4.61683183E-06
  5.19146614E-06 -4.34293714E+00  1.00777545E-05  1.35084095E-06 -4.84493759E-07
 -5.83332195E+00 -1.90960601E-01 -1.12776876E+00 -6.80292774E-01 -2.26131712E+00
  9.69427101E-01  2.57085544E+00 -2.26595669E-01 -2.67777686E+00  1.12503798E+00
  2.97371976E+00 -2.62104834E-01 -5.80368669E+00 -1.12776342E+00 -2.74352467E+00
 -1.95963822E+00 -4.12906420E+00  5.16690622E-01  1.85835370E+00 -1.63788355E-01
 -4.95906346E+00  7.93135828E-01  2.96449262E+00 -2.61286602E-01 -4.12009431E+00
 -5.66416391E+00 -1.91060053E-01 -1.12805150E+00 -6.80573426E-01 -2.26185734E+00
  9.69482797E-01 -1.08952330E+00  2.34013977E+00 -2.67816449E+00  1.12495229E+00
 -1.26008823E+00  2.70648875E+00 -1.91031135E-01 -1.12797984E+00 -5.80404483E+00
 -1.12799562E+00 -2.74389720E+00 -1.95986180E+00 -4.12946343E+00  5.16592642E-01
 -7.87446401E-01  1.69131117E+00 -4.95944664E+00  7.92938932E-01 -1.25610995E+00
  2.69792561E+00 -1.12792985E+00 -2.74380156E+00 -4.12032051E+00 -5.66441666E+00
 -7.73477166E-04 -2.84939020E-01 -1.71119060E-05 -1.95824820E-01 -4.72211957E-01
  1.99630999E-06 -6.27698145E-06 -1.06648579E+00 -2.39507848E+00  1.01392512E-05
 -3.18515978E-05 -7.73375260E-04 -2.84928140E-01 -7.73944834E-04 -2.84988875E-01
 -2.22351599E+01 -7.46419026E-02 -9.71266218E-01 -1.95824928E-01 -1.36236759E+00
 -1.99584698E+00  7.26334326E-06 -2.39787671E-05 -2.75480889E+00 -4.70295648E+00
  1.77611961E-05 -5.36923643E-05 -7.46374941E-02 -9.71239689E-01 -7.46675487E-02
 -9.71405474E-01 -4.60019609E+00 -9.07494559E+00  1.39238389E-01  8.96706945E-01
  4.72212224E-01  1.99584763E+00  2.54186536E+00 -1.14511143E-05  3.89276313E-05
  2.15418980E+00  2.04384784E+00 -1.30672204E-05  4.31795113E-05  1.39232558E-01
  8.96696744E-01  1.39284340E-01  8.96818144E-01  6.10246135E-02  4.44509187E-01
 -8.47949790E+00 -3.81429046E-02 -2.33890340E-01 -2.03063440E-06 -9.58947411E-06
 -1.49488607E-05 -6.40511761E-01 -1.40638129E-07 -1.19505508E-05 -1.96213924E-05
 -1.55571083E+00 -9.57257302E-07  6.61698398E-02  4.05763006E-01 -2.80472438E-02
 -1.71952157E-01 -6.94618487E-07 -5.77097903E-06  4.89990666E-06 -8.28295044E+00
 -5.43909686E-02 -3.33518733E-01  6.36891728E-06  2.96691270E-05  4.75307836E-05
 -1.40627750E-07 -6.40511700E-01  4.17100610E-05  7.31350676E-05 -9.57296579E-07
 -1.55571150E+00 -5.83068299E-03 -3.57491531E-02  6.02419433E-02  3.69331592E-01
  6.26097853E-06  4.40586276E-05 -1.33662239E-05  1.49047099E-06 -8.28296398E+00
 -5.51958120E-01 -1.96458855E+00 -1.06648642E+00 -2.75481134E+00 -2.15419008E+00
  3.39240252E-06 -2.04805621E-05 -4.18570714E+00 -4.78827309E+00  1.18005441E-05
 -4.60383601E-05 -5.51945315E-01 -1.96455624E+00 -5.52068599E-01 -1.96480251E+00
 -3.95341039E+00 -7.29534676E+00  4.58501748E-01 -7.16633055E-06  4.11359911E-05
 -7.80014531E+00  1.25943164E+00  2.76037006E+00  2.39507989E+00  4.70296221E+00
  2.04384948E+00 -3.53032537E-06  3.28324466E-05  4.78827703E+00  1.55053260E+00
 -7.73315258E-06  4.82868907E-05  1.25942307E+00  2.76036957E+00  1.25965731E+00
  2.76060898E+00  1.02517653E-02  3.33594068E-01 -4.57099455E+00  3.83065291E-06
 -1.27721252E-05  7.80789131E-01 -6.57046677E+00 -3.48878816E-01 -6.69416117E-01
 -1.03088388E-05 -2.40637209E-05 -1.69638974E-05 -1.55571358E+00  6.44047464E-07
 -2.88506496E-05 -2.76435790E-05 -3.12602299E+00 -1.58682257E-06  6.05252807E-01
  1.16133846E+00 -2.56497469E-01 -4.92121483E-01 -1.16696802E-07 -5.45835341E-06
  3.83065291E-06 -4.34292763E+00  2.11769442E-06 -1.52512891E-05  7.56868081E-06
 -5.83332426E+00 -4.97493841E-01 -9.54559178E-01  3.23203845E-05  6.90733851E-05
  5.24588553E-05  6.44144274E-07 -1.55571294E+00  8.23667714E-05  9.07097261E-05
 -1.58673569E-06 -3.12602056E+00 -5.33336051E-02 -1.02321129E-01  5.50924108E-01
  1.05700951E+00  1.05180107E-06  2.91811693E-05 -1.27721252E-05  2.11769442E-06
 -4.34293741E+00  4.79126742E-05 -2.70658083E-05  5.51851305E-06 -5.83333454E+00
 -4.95372442E-03 -2.54389217E-01 -7.73463710E-04 -7.46415548E-02 -1.39238095E-01
 -6.61712237E-02  5.87811749E-03 -5.51958720E-01 -1.25943608E+00 -6.05246537E-01
  5.37652360E-02 -2.03665644E-04 -7.24918983E-02 -4.96822283E-03 -2.54686530E-01
 -6.80256157E-01 -2.26125823E+00 -9.69325134E-01 -2.57068111E+00  2.28415796E-01
 -2.67774429E+00 -1.12494151E+00 -2.97357557E+00  2.64213727E-01 -5.80368925E+00
 -2.54388332E-01 -1.10484483E+00 -2.84937714E-01 -9.71265983E-01 -8.96707388E-01
 -4.05761673E-01  3.60473950E-02 -1.96459093E+00 -2.76037677E+00 -1.16132205E+00
  1.03166917E-01 -7.24923830E-02 -5.49581223E-01 -2.54695892E-01 -1.10559472E+00
 -1.95960825E+00 -4.12902199E+00 -5.16632622E-01 -1.85827153E+00  1.65132584E-01
 -4.95903962E+00 -7.93046132E-01 -2.96437861E+00  2.63418972E-01 -4.12009724E+00
 -5.66417932E+00 -4.96125764E-03 -2.54541711E-01 -7.72735399E-04 -7.46068350E-02
 -1.39183877E-01  2.79845871E-02 -6.02106017E-02 -5.51837869E-01 -1.25925666E+00
  2.56031902E-01 -5.50868274E-01 -4.94980814E-03 -2.54307390E-01 -2.03695978E-04
 -7.24969950E-02 -6.80308670E-01 -2.26132721E+00 -9.69764692E-01  1.08771621E+00
 -2.34026687E+00 -2.67776690E+00 -1.12541684E+00  1.25815138E+00 -2.70696693E+00
 -1.90981622E-01 -1.12781160E+00 -5.80361871E+00 -2.54538891E-01 -1.10519546E+00
 -2.84859928E-01 -9.71062631E-01 -8.96588009E-01  1.71644864E-01 -3.69308306E-01
 -1.96431924E+00 -2.76021566E+00  4.91302110E-01 -1.05707378E+00 -2.54306245E-01
 -1.10462389E+00 -7.24991671E-02 -5.49602270E-01 -1.95965001E+00 -4.12906262E+00
 -5.16941344E-01  7.86255507E-01 -1.69165222E+00 -4.95903530E+00 -7.93546126E-01
  1.25424225E+00 -2.69855346E+00 -1.12781707E+00 -2.74358228E+00 -4.12004898E+00
 -5.66409059E+00 -2.03774751E-04 -7.25088398E-02 -7.74012339E-04 -7.46689689E-02
 -1.39283733E-01  3.81831451E-02  5.43915257E-02 -5.52062349E-01 -1.25961810E+00
  3.49182200E-01  4.97407231E-01 -4.96647860E-03 -2.54654181E-01 -4.95812330E-03
 -2.54485609E-01 -6.80379849E-01 -2.26150179E+00 -9.69210068E-01  1.48296275E+00
  2.11255548E+00 -2.67792371E+00 -1.12474317E+00  1.71528415E+00  2.44350750E+00
 -1.91034884E-01 -1.12796895E+00 -1.91002564E-01 -1.12788919E+00 -5.80387073E+00
 -7.25075209E-02 -5.49656927E-01 -2.84996243E-01 -9.71419565E-01 -8.96812416E-01
  2.34087404E-01  3.33457259E-01 -1.96480486E+00 -2.76055497E+00  6.69943389E-01
  9.54328697E-01 -2.54651737E-01 -1.10549839E+00 -2.54491734E-01 -1.10511255E+00
 -1.95970682E+00 -4.12920383E+00 -5.16483617E-01  1.07190559E+00  1.52700682E+00
 -4.95922217E+00 -7.92786725E-01  1.70991772E+00  2.43589464E+00 -1.12794445E+00
 -2.74380392E+00 -1.12785869E+00 -2.74367595E+00 -4.12021251E+00 -5.66431442E+00
Number of independent functions            I               30
Alpha MO coefficients                      R   N=         900
  5.29039542E-04 -4.26320960E-03 -7.02380330E-01 -2.53567132E-02  5.87948349E-04
 -1.23195996E-07  2.57885118E-07  1.78172742E-02 -2.16391417E-03  4.41430379E-07
 -5.71038117E-07  5.29069832E-04 -4.26325194E-03  5.29246336E-04 -4.26433211E-03
 -7.05185835E-01 -2.54648923E-02 -5.86545397E-04 -2.86665710E-08  2.07632362E-07
  1.79337086E-02  2.14663647E-03  7.47254758E-08 -8.84545059E-07  5.29521017E-04
 -4.27860476E-03  5.29763354E-04 -4.27841167E-03  5.29636381E-04 -4.27918469E-03
  1.38352316E-04 -3.84939168E-03 -7.05208870E-01 -2.72318888E-02 -3.55561805E-04
 -1.11265452E-07  1.12622403E-07  2.94438503E-02  4.39086846E-03  5.16103342E-07
 -1.72130649E-07  1.38425613E-04 -3.84922737E-03  1.38695797E-04 -3.85028291E-03
  7.02403467E-01  2.71304489E-02 -3.57847386E-04  3.11659885E-08 -2.05487587E-07
 -2.93723196E-02  4.39926666E-03 -2.63408679E-07  8.93161129E-07 -1.36229001E-04
  3.83249252E-03 -1.36382095E-04  3.83219235E-03 -1.36392391E-04  3.83287252E-03
 -8.39559756E-02 -1.64250012E-02  1.49773828E-01 -2.86094353E-01 -6.04302337E-02
 -1.16719465E-05  1.58987751E-05 -2.42710665E-01 -5.43336599E-03 -2.57619842E-06
  1.16262107E-05 -8.39570916E-02 -1.64198256E-02 -8.39773584E-02 -1.64231253E-02
  1.49768130E-01 -2.86082690E-01  6.04335730E-02  1.88760510E-06  1.92214407E-05
 -2.42702079E-01  5.43235117E-03 -2.61235368E-06  1.69283302E-06 -8.39553156E-02
 -1.64181822E-02 -8.39501087E-02 -1.64209163E-02 -8.39655028E-02 -1.64243815E-02
 -1.18530249E-01 -4.45143597E-02  1.29439634E-01 -2.51521384E-01  1.32267926E-01
 -1.86071383E-05  2.30427603E-05 -2.80664510E-01  3.25951705E-02 -1.00990464E-05
  1.00619452E-05 -1.18532489E-01 -4.45167721E-02 -1.18562102E-01 -4.45184273E-02
 -1.29445187E-01  2.51531489E-01  1.32267999E-01 -8.77133409E-06 -1.34743366E-05
  2.80679617E-01  3.25966951E-02 -2.79894809E-06  1.05884196E-06  1.18537057E-01
  4.45166532E-02  1.18548873E-01  4.45177818E-02  1.18547464E-01  4.45192869E-02
  9.10705323E-02  6.88406367E-02 -1.08089964E-05  3.01108949E-05 -1.45018258E-05
 -1.33216997E-01  2.92106446E-01  6.56061986E-06 -3.43262896E-05 -5.86789046E-02
  1.28670733E-01  8.86428874E-02  6.69998014E-02 -1.79680430E-01 -1.35818144E-01
 -6.10878018E-06  3.76911543E-06  1.00167806E-05 -1.33180899E-01  2.92089930E-01
  5.20485572E-05 -1.69747870E-05 -5.86673393E-02  1.28687665E-01 -8.87080073E-02
 -6.70532569E-02  1.79661541E-01  1.35798518E-01 -9.09732847E-02 -6.87525123E-02
  1.54899446E-01  1.17082815E-01  2.39050866E-06 -1.91799134E-06  4.63244286E-06
  2.92114351E-01  1.33180657E-01 -8.51832480E-06 -2.70077422E-06  1.28680685E-01
  5.86899524E-02 -1.56325550E-01 -1.18173802E-01  1.42917753E-03  1.09234816E-03
 -3.41717687E-06  3.20594526E-06  1.16719878E-05  2.92077000E-01  1.33208048E-01
  1.77144724E-05  2.07292294E-06  1.28657194E-01  5.86795951E-02  1.56246768E-01
  1.18119049E-01 -1.28348831E-03 -9.71667970E-04 -1.54956186E-01 -1.17137317E-01
  8.43108861E-02  7.93467957E-02  1.74226009E-02 -3.96284232E-02 -4.16510025E-01
  5.07618469E-06 -1.21753429E-04 -4.29959639E-02 -1.87141127E-01  5.79255857E-06
 -4.10421195E-05  8.43731585E-02  7.94103616E-02  8.44488119E-02  7.94663070E-02
  1.74258307E-02 -3.96348849E-02  4.16508360E-01  2.68519786E-06  7.63839884E-05
 -4.30025406E-02  1.87140907E-01 -3.75688719E-06  2.62338343E-05  8.43676641E-02
  7.94084134E-02  8.44531331E-02  7.94650370E-02  8.43136021E-02  7.93513616E-02
 -6.73220599E-02 -6.49335579E-02 -3.50081200E-06  2.78289299E-06  1.14999584E-04
  1.91094703E-01 -2.49520579E-01  8.59603877E-06  7.47467928E-05  9.20296615E-02
 -1.20155487E-01 -1.51056631E-01 -1.45682384E-01  2.18305942E-01  2.10529454E-01
 -7.82397078E-06  1.16878777E-05 -8.34058682E-05 -1.91146097E-01  2.49515498E-01
  1.41851814E-05 -4.89155776E-05 -9.20702151E-02  1.20151279E-01 -1.51185538E-01
 -1.45797465E-01  2.18292002E-01  2.10530354E-01 -6.71796047E-02 -6.48012813E-02
 -2.13279836E-01 -2.05691013E-01 -6.27824108E-06  1.50977533E-05  8.69606255E-05
 -2.49501194E-01 -1.91122401E-01  6.59485630E-06  4.97706290E-05 -1.20176808E-01
 -9.20533648E-02  1.64880540E-01  1.59012438E-01  4.83434879E-02  4.66262776E-02
 -6.41423482E-06  1.36219410E-05 -7.67147572E-05  2.49522625E-01  1.91118925E-01
  1.47368062E-05 -4.02189838E-05  1.20181287E-01  9.20556324E-02  1.64801544E-01
  1.58949089E-01  4.84703600E-02  4.67382952E-02 -2.13321501E-01 -2.05724420E-01
 -1.48423705E-02 -7.79810362E-01 -9.64936388E-02  1.14792015E-01 -1.28828603E-01
  5.34895748E-06  4.48959987E-05  1.57806468E+00 -4.98226986E-01  6.47166804E-05
  1.62184525E-04 -1.48227733E-02 -7.79629615E-01 -1.47962609E-02 -7.79575974E-01
 -9.65009956E-02  1.14802588E-01  1.28829837E-01  2.51716131E-05 -3.39045658E-05
  1.57810990E+00  4.98252848E-01  3.84952802E-05 -2.30092615E-04 -1.48247600E-02
 -7.79735581E-01 -1.48176199E-02 -7.79572964E-01 -1.48226813E-02 -7.79791178E-01
 -1.94003989E-02 -7.99176591E-01 -1.27242901E-01  1.07892564E-01 -4.99423982E-02
 -4.77248887E-05  1.68247802E-04  2.29644342E+00  2.14617973E-01 -9.06448297E-05
  5.05229641E-04 -1.94002021E-02 -7.98983877E-01 -1.93391615E-02 -7.98219991E-01
  1.27237700E-01 -1.07885664E-01 -4.99472640E-02 -1.82888263E-05  2.43815431E-06
 -2.29631880E+00  2.14627220E-01  8.48832027E-06 -5.80182553E-05  1.93902170E-02
  7.98730115E-01  1.93762369E-02  7.98746934E-01  1.93808682E-02  7.98730701E-01
  8.04915143E-02  9.79551524E-01 -4.31622144E-05  2.89475165E-05  6.47299746E-05
 -3.16688880E-04 -2.96720014E-01  8.67570110E-04  2.32034987E-04 -1.58100250E-03
 -7.64176703E-01  8.56494175E-03  1.03244785E-01 -8.90306677E-02 -1.08343828E+00
  3.74096382E-05 -3.42959609E-05  1.25850676E-05  3.66116303E-04 -2.96750822E-01
 -5.96166302E-04  1.89515266E-04  1.70259419E-03 -7.64256274E-01 -8.75509740E-03
 -1.07332091E-01  8.91287133E-02  1.08502788E+00 -8.03520636E-02 -9.77414620E-01
  5.63439284E-02  6.85325065E-01  8.04927054E-06  7.41433074E-06 -2.57925537E-05
 -2.96728382E-01  2.20104422E-04 -2.42559100E-04 -9.44058010E-05 -7.64084240E-01
  1.26574583E-03 -9.78553489E-02 -1.19084198E+00  4.14973157E-02  5.05692110E-01
 -1.59994492E-05  7.68168741E-06  5.45314537E-08 -2.96784682E-01 -2.71664974E-04
  3.67304317E-04 -2.04865597E-05 -7.64260668E-01 -1.36786190E-03  9.78542190E-02
  1.19069456E+00 -4.13466665E-02 -5.02755356E-01 -5.65106069E-02 -6.88278219E-01
 -4.80550131E-02 -1.20359503E+00  1.38617370E-05 -7.71420209E-06  3.26487280E-05
  2.45148704E-01  1.31407236E-01 -3.07197445E-04  2.30315630E-05  1.13199274E+00
  6.07840049E-01  4.50576506E-02  1.12747783E+00  3.00705000E-03  7.64596902E-02
 -3.54546048E-06 -2.82344963E-07 -2.26814932E-05 -2.44763356E-01 -1.32157429E-01
  1.44866959E-04 -6.31811987E-05 -1.13107983E+00 -6.09607970E-01  4.49237532E-02
  1.12513471E+00  3.26049342E-03  8.04001385E-02 -4.81831464E-02 -1.20564621E+00
 -2.42741231E-02 -6.06294601E-01  4.64569229E-05 -9.99354062E-06  4.01595404E-05
 -1.31501158E-01  2.45178896E-01 -1.21600785E-03 -1.18918403E-04 -6.08164900E-01
  1.13209140E+00 -2.94803035E-02 -7.39146413E-01  5.37464168E-02  1.34663542E+00
 -2.22224474E-05  1.30596943E-06 -3.22298191E-05  1.32085591E-01 -2.44763602E-01
  5.64228475E-04 -3.37504722E-04  6.09426069E-01 -1.13108681E+00 -2.96642796E-02
 -7.42316642E-01  5.37110099E-02  1.34546724E+00 -2.40471629E-02 -6.03497376E-01
  5.85825779E-02  4.00273593E-01 -5.30698863E-02  3.00836944E-02  3.48495805E-01
 -2.64086871E-05  7.53470012E-05  1.18526639E+00  1.86336220E+00 -7.90244925E-05
  1.78204321E-04  5.85795323E-02  4.00354990E-01  5.85693468E-02  4.00713394E-01
  5.30710489E-02 -3.00895300E-02  3.48501305E-01  8.98542965E-07  4.22511502E-05
 -1.18527101E+00  1.86336645E+00 -2.64554192E-06  3.44371368E-05 -5.85775263E-02
 -4.00400199E-01 -5.85424149E-02 -4.00679575E-01 -5.85888709E-02 -4.00288120E-01
 -1.12258262E-01 -8.12342870E-02  6.53386284E-03  5.02125554E-02  6.53728961E-01
 -4.93404908E-05  7.00857297E-05  4.98723787E-01 -1.00978218E+00  1.14926452E-04
 -1.33132949E-04 -1.12326101E-01 -8.12318599E-02 -1.12465885E-01 -8.12881141E-02
  6.53762787E-03  5.02251456E-02 -6.53696513E-01  2.03461747E-05  2.96171121E-04
  4.98653376E-01  1.00982979E+00 -7.94219164E-05 -4.57732208E-04 -1.12352628E-01
 -8.12272927E-02 -1.12169987E-01 -8.13466066E-02 -1.12492483E-01 -8.12443666E-02
 -3.40501059E-01 -1.25148665E-01  1.03875621E-05  4.50268211E-05  1.82421243E-04
  1.86758360E-02 -4.83235607E-01  1.12430341E-04 -9.96290040E-05 -3.40097997E-02
  8.75179953E-01 -5.41461745E-02 -1.98843886E-02  3.94588486E-01  1.45245243E-01
 -9.94021425E-07 -7.57084992E-05 -3.14082172E-04  1.88709590E-02 -4.82967552E-01
  2.23349259E-04  7.22560853E-04 -3.40160321E-02  8.74516270E-01  5.42215802E-02
  1.98344902E-02 -3.94707041E-01 -1.45060501E-01  3.40176958E-01  1.25031380E-01
 -2.58961584E-01 -9.51745998E-02 -1.74561490E-06  2.98343809E-05  1.77990128E-05
 -4.83043793E-01 -1.84947531E-02 -3.89736928E-06 -3.10899733E-05  8.74786427E-01
  3.33994556E-02  4.24359873E-01  1.56047654E-01 -1.65364004E-01 -6.09705763E-02