Jobname.Temp
SP        U                             6-31G               
Number of atoms                            I                3
Charge                                     I                0
Multiplicity                               I                3
Number of electrons                        I                8
Number of alpha electrons                  I                5
Number of beta electrons                   I                3
Atomic numbers                             I   N=           3
           6           1           1
Current cartesian coordinates              R   N=           9
  0.00000000E+00  0.00000000E+00  2.48830774E-01 -1.71171695E+00 -2.09624868E-16
 -7.46492322E-01  1.71171695E+00  2.09624868E-16 -7.46492322E-01
Nuclear charges                            R   N=           3
  6.00000000E+00  1.00000000E+00  1.00000000E+00
Number of basis functions                  I               13
Number of contracted shells                I                7
Number of primitive shells                 I               18
Highest angular momentum                   I                1
Largest degree of contraction              I                6
Shell types                                I   N=           7
           0          -1          -1           0           0           0
           0
Number of primitives per shell             I   N=           7
           6           3           1           3           1           3
           1
Shell to atom map                          I   N=           7
           1           1           1           2           2           3
           3
Primitive exponents                        R   N=          18
  3.04752490E+03  4.57369510E+02  1.03948690E+02  2.92101550E+01  9.28666300E+00
  3.16392700E+00  7.86827240E+00  1.88128850E+00  5.44249300E-01  1.68714400E-01
  1.87311370E+01  2.82539370E+00  6.40121700E-01  1.61277800E-01  1.87311370E+01
  2.82539370E+00  6.40121700E-01  1.61277800E-01
Contraction coefficients                   R   N=          18
  1.83470016E-03  1.40373012E-02  6.88426061E-02  2.32184421E-01  4.67941342E-01
  3.62312032E-01 -1.19332409E-01 -1.60854212E-01  1.14345648E+00  1.00000000E+00
  3.34945995E-02  2.34726947E-01  8.13757318E-01  1.00000000E+00  3.34945995E-02
  2.34726947E-01  8.13757318E-01  1.00000000E+00
P(S=P) Contraction coefficients            R   N=          18
  0.00000000E+00  0.00000000E+00  0.00000000E+00  0.00000000E+00  0.00000000E+00
  0.00000000E+00  6.89990956E-02  3.16423980E-01  7.44308252E-01  1.00000000E+00
  0.00000000E+00  0.00000000E+00  0.00000000E+00  0.00000000E+00  0.00000000E+00
  0.00000000E+00  0.00000000E+00  0.00000000E+00
Coordinates of each shell                  R   N=          21
  0.00000000E+00  0.00000000E+00  2.48830774E-01  0.00000000E+00  0.00000000E+00
  2.48830774E-01  0.00000000E+00  0.00000000E+00  2.48830774E-01 -1.71171695E+00
 -2.09624868E-16 -7.46492322E-01 -1.71171695E+00 -2.09624868E-16 -7.46492322E-01
  1.71171695E+00  2.09624868E-16 -7.46492322E-01  1.71171695E+00  2.09624868E-16
 -7.46492322E-01
Overlap Matrix                             R   N=          91
  1.00000000E+00  2.19058872E-01  1.00000000E+00  0.00000000E+00  0.00000000E+00
  1.00000000E+00  0.00000000E+00  0.00000000E+00  0.00000000E+00  1.00000000E+00
 -1.08246898E-17 -3.65559717E-17  0.00000000E+00  0.00000000E+00  1.00000000E+00
  1.84261053E-01  8.12273068E-01  0.00000000E+00  0.00000000E+00 -1.14668562E-17
  1.00000000E+00  0.00000000E+00  0.00000000E+00  5.69754058E-01  0.00000000E+00
  0.00000000E+00  0.00000000E+00  1.00000000E+00  0.00000000E+00  0.00000000E+00
  0.00000000E+00  5.69754058E-01  0.00000000E+00  0.00000000E+00  0.00000000E+00
  1.00000000E+00 -3.84962750E-18  1.91226841E-18  0.00000000E+00  0.00000000E+00
  5.69754058E-01 -2.28011268E-17  0.00000000E+00  0.00000000E+00  1.00000000E+00
  3.92886844E-02  3.01019215E-01 -3.42458744E-01 -4.19391005E-17 -1.99131695E-01
  3.93950940E-01 -4.47240769E-01 -5.47711977E-17 -2.60059976E-01  1.00000000E+00
  9.69466291E-02  4.95231792E-01 -2.30088506E-01 -2.81777153E-17 -1.33791048E-01
  7.23494651E-01 -4.97215047E-01 -6.08912816E-17 -2.89118841E-01  6.58292049E-01
  1.00000000E+00  3.92886844E-02  3.01019215E-01  3.42458744E-01  4.19391005E-17
 -1.99131695E-01  3.93950940E-01  4.47240769E-01  5.47711977E-17 -2.60059976E-01
  1.61412042E-02  1.41448360E-01  1.00000000E+00  9.69466291E-02  4.95231792E-01
  2.30088506E-01  2.81777153E-17 -1.33791048E-01  7.23494651E-01  4.97215047E-01
  6.08912816E-17 -2.89118841E-01  1.41448360E-01  3.88648550E-01  6.58292049E-01
  1.00000000E+00
Core Hamiltonian Matrix                    R   N=          91
 -1.89552470E+01 -3.88170207E+00 -5.79468330E+00  0.00000000E+00  0.00000000E+00
 -5.16418898E+00  0.00000000E+00  0.00000000E+00  0.00000000E+00 -4.99150007E+00
  2.43170883E-02  1.70398289E-01  0.00000000E+00  0.00000000E+00 -5.04988876E+00
 -3.34905017E+00 -4.63327964E+00  0.00000000E+00  0.00000000E+00  1.57185105E-01
 -4.58489320E+00  0.00000000E+00  0.00000000E+00 -2.63515609E+00  0.00000000E+00
  0.00000000E+00  0.00000000E+00 -3.10532258E+00  0.00000000E+00  0.00000000E+00
  0.00000000E+00 -2.49419896E+00  0.00000000E+00  0.00000000E+00  0.00000000E+00
 -2.89510561E+00  4.08509354E-03  1.11132173E-01  0.00000000E+00  0.00000000E+00
 -2.54185866E+00  1.71832975E-01  0.00000000E+00  0.00000000E+00 -2.96618310E+00
 -7.19451951E-01 -1.72378891E+00  1.69878162E+00 -2.98644664E-17  1.00351016E+00
 -1.86954907E+00  1.73317242E+00 -2.93752252E-17  1.02037010E+00 -3.57679010E+00
 -1.76449892E+00 -2.80843778E+00  1.07904911E+00 -1.43397842E-17  6.99295736E-01
 -3.09835735E+00  1.49965794E+00 -2.18580049E-17  9.52090632E-01 -2.64805448E+00
 -3.38086983E+00 -7.19451951E-01 -1.72378891E+00 -1.69878162E+00  2.98644664E-17
  1.00351016E+00 -1.86954907E+00 -1.73317242E+00  2.93752252E-17  1.02037010E+00
 -1.30115938E-01 -7.37412909E-01 -3.57679010E+00 -1.76449892E+00 -2.80843778E+00
 -1.07904911E+00  1.43397842E-17  6.99295736E-01 -3.09835735E+00 -1.49965794E+00
  2.18580049E-17  9.52090632E-01 -7.37412909E-01 -1.69188086E+00 -2.64805448E+00
 -3.38086983E+00
Orbital Coefficients CCMAN2 Alpha          R   N=         169
 -9.95655038E-01 -2.56838693E-02  3.88578059E-16 -1.53172134E-16  5.19585466E-04
  1.11739288E-02 -3.30291350E-15  2.43776161E-16 -1.73571559E-03  6.60351626E-04
 -3.31004520E-03  6.60351626E-04 -3.31004520E-03 -2.10836257E-01  4.29704958E-01
 -7.56339436E-16 -2.06723402E-16 -4.76109586E-02  4.51334633E-01 -1.22124533E-15
  4.35762183E-16 -2.12174265E-02  1.59024668E-01  2.65788817E-02  1.59024668E-01
  2.65788817E-02 -5.87439957E-02  1.26449378E-01  3.02015357E-15  8.20326314E-16
  5.67304452E-01  3.09565223E-01  5.80091530E-15  3.72367780E-16  3.97504253E-01
 -1.25738152E-01 -1.01156135E-01 -1.25738152E-01 -1.01156135E-01  1.19695920E-16
  1.56125113E-15  4.80703674E-01 -2.19285970E-16 -4.71150896E-15 -6.66133815E-15
  1.94094165E-01 -2.42329857E-16 -1.33226763E-15 -2.45310095E-01 -1.68527517E-01
  2.45310095E-01  1.68527517E-01 -2.45797121E-16  2.38826414E-16 -4.15601236E-16
 -6.18485903E-01  8.24288748E-16  1.60854818E-16  7.57501339E-17 -5.08806341E-01
  3.53301092E-16  4.25554277E-16 -3.60315125E-16 -2.42083761E-16  1.02071070E-16
  1.17070679E-01 -1.40472602E-01 -7.34134975E-15 -2.87668617E-16  1.68114805E-01
 -2.09458285E+00 -4.28546088E-14  1.30683936E-16  8.26541061E-01  3.79091086E-02
  1.55838853E+00  3.79091086E-02  1.55838853E+00  3.42047937E-02 -2.50567981E-01
 -1.56307259E-14 -1.97506824E-14 -9.63193695E-01 -6.77510812E-02  3.66651154E-14
  2.08013411E-14  1.22031472E+00  1.91272465E-01  1.04305950E-01  1.91272465E-01
  1.04305950E-01 -2.30709267E-02 -1.41561488E+00  4.23619473E-15 -1.17582083E-15
 -1.34136175E-01  2.64339842E+00 -1.22124533E-14  1.24509825E-15 -5.89922044E-01
 -5.79494171E-01 -5.31787232E-01 -5.79494171E-01 -5.31787232E-01  5.50267873E-02
 -1.38987420E+00  6.23112673E-15 -1.15273023E-16  5.08350447E-01  2.46718270E+00
 -8.21565038E-15  1.98849240E-16 -6.70081723E-01  7.45291239E-01 -1.32429371E+00
  7.45291239E-01 -1.32429371E+00  2.93168267E-15 -1.21430643E-14  3.33151499E-01
 -7.44166953E-17  4.10782519E-15 -3.51940699E-14  1.58703132E+00 -2.81242484E-17
  1.63202785E-14  4.00495655E-02  1.81866672E+00 -4.00495655E-02 -1.81866672E+00
  8.28547300E-16  4.16333634E-15  7.36757690E-01  9.59350688E-15 -1.90793562E-14
 -1.76109127E-14 -1.80951647E+00 -9.78136801E-15  2.87755930E-14 -4.31064659E-01
 -4.92788776E-01  4.31064659E-01  4.92788776E-01 -1.56125113E-16  1.30659372E-14
  9.27274905E-01 -2.27363158E-16 -3.30638295E-15 -2.80331314E-14 -1.03841532E+00
  3.19153197E-16  8.40993941E-15  8.75475905E-01 -1.28989476E+00 -8.75475905E-01
  1.28989476E+00  6.43127738E-16 -6.02839981E-15 -6.61951322E-15  1.04791337E+00
 -1.78546996E-14 -2.08288114E-16  1.68724398E-14 -1.10533405E+00  2.31224418E-14
  7.46491220E-15  7.16629601E-15 -8.66546614E-16 -2.16215741E-15
Number of independent functions            I               13
Alpha MO coefficients                      R   N=         169
 -9.95655038E-01 -2.56838693E-02  3.88578059E-16 -1.53172134E-16  5.19585466E-04
  1.11739288E-02 -3.30291350E-15  2.43776161E-16 -1.73571559E-03  6.60351626E-04
 -3.31004520E-03  6.60351626E-04 -3.31004520E-03 -2.10836257E-01  4.29704958E-01
 -7.56339436E-16 -2.06723402E-16 -4.76109586E-02  4.51334633E-01 -1.22124533E-15
  4.35762183E-16 -2.12174265E-02  1.59024668E-01  2.65788817E-02  1.59024668E-01
  2.65788817E-02  1.19695920E-16  1.56125113E-15  4.80703674E-01 -2.19285970E-16
 -4.71150896E-15 -6.66133815E-15  1.94094165E-01 -2.42329857E-16 -1.33226763E-15
 -2.45310095E-01 -1.68527517E-01  2.45310095E-01  1.68527517E-01 -5.87439957E-02
  1.26449378E-01  3.02015357E-15  8.20326314E-16  5.67304452E-01  3.09565223E-01
  5.80091530E-15  3.72367780E-16  3.97504253E-01 -1.25738152E-01 -1.01156135E-01
 -1.25738152E-01 -1.01156135E-01 -2.45797121E-16  2.38826414E-16 -4.15601236E-16
 -6.18485903E-01  8.24288748E-16  1.60854818E-16  7.57501339E-17 -5.08806341E-01
  3.53301092E-16  4.25554277E-16 -3.60315125E-16 -2.42083761E-16  1.02071070E-16
  1.17070679E-01 -1.40472602E-01 -7.34134975E-15 -2.87668617E-16  1.68114805E-01
 -2.09458285E+00 -4.28546088E-14  1.30683936E-16  8.26541061E-01  3.79091086E-02
  1.55838853E+00  3.79091086E-02  1.55838853E+00  2.93168267E-15 -1.21430643E-14
  3.33151499E-01 -7.44166953E-17  4.10782519E-15 -3.51940699E-14  1.58703132E+00
 -2.81242484E-17  1.63202785E-14  4.00495655E-02  1.81866672E+00 -4.00495655E-02
 -1.81866672E+00  3.42047937E-02 -2.50567981E-01 -1.56307259E-14 -1.97506824E-14
 -9.63193695E-01 -6.77510812E-02  3.66651154E-14  2.08013411E-14  1.22031472E+00
  1.91272465E-01  1.04305950E-01  1.91272465E-01  1.04305950E-01  6.43127738E-16
 -6.02839981E-15 -6.61951322E-15  1.04791337E+00 -1.78546996E-14 -2.08288114E-16
  1.68724398E-14 -1.10533405E+00  2.31224418E-14  7.46491220E-15  7.16629601E-15
 -8.66546614E-16 -2.16215741E-15  8.28547300E-16  4.16333634E-15  7.36757690E-01
  9.59350688E-15 -1.90793562E-14 -1.76109127E-14 -1.80951647E+00 -9.78136801E-15
  2.87755930E-14 -4.31064659E-01 -4.92788776E-01  4.31064659E-01  4.92788776E-01
 -2.30709267E-02 -1.41561488E+00  4.23619473E-15 -1.17582083E-15 -1.34136175E-01
  2.64339842E+00 -1.22124533E-14  1.24509825E-15 -5.89922044E-01 -5.79494171E-01
 -5.31787232E-01 -5.79494171E-01 -5.31787232E-01  5.50267873E-02 -1.38987420E+00
  6.23112673E-15 -1.15273023E-16  5.08350447E-01  2.46718270E+00 -8.21565038E-15
  1.98849240E-16 -6.70081723E-01  7.45291239E-01 -1.32429371E+00  7.45291239E-01
 -1.32429371E+00 -1.56125113E-16  1.30659372E-14  9.27274905E-01 -2.27363158E-16
 -3.30638295E-15 -2.80331314E-14 -1.03841532E+00  3.19153197E-16  8.40993941E-15
  8.75475905E-01 -1.28989476E+00 -8.75475905E-01  1.28989476E+00
Beta MO coefficients                       R   N=         169
 -9.96706977E-01 -2.08667775E-02 -3.25694333E-16 -2.19007258E-17  9.02576886E-04
  1.06805260E-02 -1.57859836E-15  9.94937846E-17 -1.70919121E-03  1.41076631E-04
 -3.02415759E-03  1.41076631E-04 -3.02415759E-03 -1.77849454E-01  3.53489717E-01
 -3.11556336E-15 -8.59799447E-18 -1.60472768E-01  2.57364408E-01  8.88178420E-16
  7.86767979E-17 -3.22129215E-02  2.25248251E-01  1.24955882E-01  2.25248251E-01
  1.24955882E-01  1.32879818E-15 -2.16493490E-15 -4.21285935E-01  6.48569354E-18
  9.22872889E-16  1.83186799E-15 -1.25607613E-01 -2.57738389E-17 -1.49880108E-15
  2.76164668E-01  2.48019950E-01 -2.76164668E-01 -2.48019950E-01  9.90280720E-02
 -9.43788870E-02  2.22044605E-16  4.16729546E-16 -3.05739337E-01 -6.26600978E-01
 -3.33066907E-15  2.07139566E-16 -5.59286380E-01  7.54812983E-02  1.83046122E-01
  7.54812983E-02  1.83046122E-01  1.15756771E-16 -2.58342693E-16  4.17188276E-17
 -3.61735620E-01 -1.58584762E-16 -3.57979285E-16 -3.93917688E-17 -7.48690053E-01
 -1.82226665E-16 -3.75077793E-16  1.71441537E-16  7.53945695E-18  4.26445792E-16
  1.21741873E-01 -1.20221636E-01 -5.68989300E-15 -2.30776980E-16  1.83256742E-01
 -2.15634504E+00 -2.95319325E-14  1.64279481E-16  8.83200769E-01 -1.49469329E-03
  1.58212806E+00 -1.49469329E-03  1.58212806E+00 -2.45116427E-15  6.17561557E-15
 -3.39208480E-01  3.06629711E-17 -3.67067488E-15  2.95319325E-14 -1.60981488E+00
 -6.23550863E-17 -1.26565425E-14  1.72352036E-02 -1.84470426E+00 -1.72352036E-02
  1.84470426E+00 -1.01784900E-15 -8.98933705E-15  7.12563011E-01 -4.05076008E-16
  8.72392436E-15  2.39114284E-14 -1.81087300E+00  3.10886091E-16 -1.72709069E-14
 -4.50549694E-01 -4.93463567E-01  4.50549694E-01  4.93463567E-01 -6.41869168E-02
 -3.17844998E-01 -1.03146658E-14  2.65830708E-15  8.67095564E-01  1.23949273E+00
  2.81719092E-14 -2.69631168E-15 -1.25543333E+00 -4.49510897E-01 -3.08180906E-01
 -4.49510897E-01 -3.08180906E-01 -1.19621178E-16  2.52114082E-15 -4.89040154E-16
 -1.16180660E+00  3.41356787E-15 -9.42545604E-16  5.59332900E-16  9.59223879E-01
 -3.98028459E-15  5.40677879E-17 -9.34696317E-16 -1.88755765E-16 -8.65573486E-16
 -2.45071286E-03  1.32573624E+00  2.44249065E-15  2.89339140E-15  6.27996954E-01
 -2.15597406E+00 -9.03443986E-15 -2.54618549E-15  3.50286054E-02  4.64468092E-01
  3.49259742E-01  4.64468092E-01  3.49259742E-01 -6.21178822E-02  1.48733825E+00
  1.46202495E-14 -4.47004081E-17 -5.07416984E-01 -2.54415054E+00 -1.58206781E-14
 -9.90442444E-17  6.75716812E-01 -7.04391252E-01  1.31062578E+00 -7.04391252E-01
  1.31062578E+00 -1.31665512E-15  1.94219640E-14 -9.71815986E-01  9.42406962E-17
 -8.47932835E-15 -2.75890422E-14  1.01116515E+00 -3.17399309E-16  7.43849426E-15
 -8.57027892E-01  1.23881615E+00  8.57027892E-01 -1.23881615E+00
Alpha Orbital Energies                     R   N=          13
 -1.12602492E+01 -9.63322022E-01 -6.10444342E-01 -4.73137196E-01 -4.11577563E-01
  2.71768423E-01  3.25405086E-01  7.19169181E-01  7.28143354E-01  7.35286402E-01
  8.88424607E-01  1.23890615E+00  1.26316283E+00
Beta Orbital Energies                      R   N=          13
 -1.12097746E+01 -7.93397234E-01 -5.66368765E-01  1.36257130E-01  1.73520986E-01
  2.99355693E-01  3.65923694E-01  7.66567407E-01  8.45792009E-01  8.98082128E-01
  9.74110300E-01  1.27337040E+00  1.29815904E+00
Total SCF Density                          R   N=          91
  2.06428696E+00 -1.14523143E-01  3.26685859E-01 -2.83844748E-17  6.14945905E-16
  4.08557861E-01  3.23281959E-16 -1.31459341E-16  1.48899603E-16  3.82524812E-01
  3.83544763E-03 -5.48102198E-03 -4.04405411E-16 -3.33135106E-17  3.49853739E-01
 -1.80885655E-01  3.23550873E-01 -4.18126937E-15  5.69983665E-17  1.12844721E-01
  3.66008947E-01  4.47703938E-15  1.21544280E-15  1.46218499E-01 -9.02271697E-17
  2.17296408E-15 -1.03633374E-16  5.34498175E-02 -3.44561443E-16  1.32292660E-16
  1.05829847E-16  3.14689549E-01 -2.41313518E-16  2.54137919E-16 -8.23395694E-17
  2.58883892E-01 -9.71679805E-03  2.98402409E-02  1.30781295E-15  1.12537854E-16
  2.31682966E-01  1.05149224E-01  2.24129586E-15 -4.41174012E-17  1.59503416E-01
 -6.70001773E-02  1.32037213E-01 -2.34265754E-01 -3.45676495E-16 -1.15048870E-01
  9.08289495E-02 -8.23016429E-02 -1.23823652E-16 -6.06128357E-02  2.28280125E-01
 -1.55749495E-02  4.29486853E-02 -1.85499113E-01  1.72437479E-16 -7.87082376E-02
  1.27714590E-02 -6.38634017E-02  2.00415563E-16 -4.47882093E-02  1.54925213E-01
  1.16488495E-01 -6.70001773E-02  1.32037213E-01  2.34265754E-01 -4.39201435E-17
 -1.15048870E-01  9.08289495E-02  8.23016429E-02  1.11218541E-16 -6.06128357E-02
 -4.46078080E-02 -6.47464835E-02  2.28280125E-01 -1.55749495E-02  4.29486853E-02
  1.85499113E-01 -1.90670468E-16 -7.87082376E-02  1.27714590E-02  6.38634017E-02
 -1.03743111E-16 -4.47882093E-02 -6.47464835E-02 -6.33423445E-02  1.54925213E-01
  1.16488495E-01
Spin SCF Density                           R   N=          91
  1.41765133E-02 -3.03833627E-02  7.59050548E-02 -6.66222617E-16  9.79879499E-16
  5.35941838E-02  2.76566450E-16 -1.26294731E-16  1.54364266E-16  3.82524812E-01
 -5.14453314E-02  1.08007593E-01 -6.26156903E-16 -3.60334644E-17  2.98349091E-01
 -6.80507073E-02  1.42045266E-01 -1.02716152E-15  6.18918246E-17  1.95425399E-01
  2.33307922E-01  1.97997781E-15 -2.22262088E-17  4.03850577E-02 -8.85978648E-17
  2.69271031E-15 -6.68907467E-17  2.18952725E-02 -1.18243893E-16  8.08220116E-17
  8.41135355E-17  3.14689549E-01 -2.16242152E-16  2.11515412E-16 -8.88143501E-17
  2.58883892E-01 -2.45820246E-02  5.25427833E-02 -1.56870828E-16  1.11909056E-16
  2.21347458E-01  1.21766653E-01  1.91659960E-15 -3.87084744E-17  1.57422229E-01
  1.34016037E-02 -2.72027801E-02 -1.57717408E-03 -3.45379188E-16 -4.27567038E-02
 -2.51158298E-02 -1.29248735E-02 -1.45059700E-16 -4.61005450E-02 -2.57273116E-02
  2.28433232E-02 -4.55187621E-02  2.34755194E-02  1.71236593E-16 -3.85987460E-02
 -5.14823350E-02 -1.55701395E-03  1.94139928E-16 -3.67481590E-02 -3.83548153E-02
 -3.77855321E-02  1.34016037E-02 -2.72027801E-02  1.57717408E-03 -3.64583589E-17
 -4.27567038E-02 -2.51158298E-02  1.29248735E-02  6.15111990E-17 -4.61005450E-02
  6.45244987E-03  1.59508758E-02 -2.57273116E-02  2.28433232E-02 -4.55187621E-02
 -2.34755194E-02 -1.85437028E-16 -3.85987460E-02 -5.14823350E-02  1.55701395E-03
 -1.35588451E-16 -3.67481590E-02  1.59508758E-02  2.84392104E-02 -3.83548153E-02
 -3.77855321E-02
Pure Switching                             I                1
Dipole_Data                                R   N=           3
  3.97972265E-16 -1.89411282E-15 -6.32446557E-01
Quadrupole_Data                            R   N=           6
 -6.32909676E+00  8.10176435E-16 -7.81134691E+00 -3.36685070E-15  1.12186462E-16
 -7.18466503E+00
Octapole_Data                              R   N=          10
 -2.20546655E-14 -8.69949969E-16 -3.01360977E-15 -2.56120121E-15 -8.02032482E-01
 -7.83165920E-17 -3.20923592E-01 -8.66284772E-15 -7.96831258E-16 -9.52177507E-01
Hexadecapole_Data                          R   N=          15
 -1.30115044E+01  8.67505879E-16 -3.79482195E+00  6.39907894E-16 -8.21049826E+00
  5.68201140E-15  2.53581764E-17 -2.10504322E-18  7.88649267E-17 -3.64899240E+00
  2.55160330E-16 -2.95817537E+00  5.70450495E-16  9.15906280E-17 -9.40556351E+00
