
Running Job 1 of 1 input
qchem input_342.0 /aimm/scratch/qchem342/ 0
/home/epif/aimm/qcprog.exe_s input_342.0 /aimm/scratch/qchem342/
8388608
                  Welcome to Q-Chem
     A Quantum Leap Into The Future Of Chemistry


 Q-Chem 6.0, Q-Chem, Inc., Pleasanton, CA (2022)

 E. Epifanovsky,  A. T. B. Gilbert,  Xintian Feng,  Joonho Lee,  Yuezhi Mao,  
 N. Mardirossian,  P. Pokhilko,  A. White,  M. Wormit,  M. P. Coons,  
 A. L. Dempwolff,  Zhengting Gan,  D. Hait,  P. R. Horn,  L. D. Jacobson,  
 I. Kaliman,  J. Kussmann,  A. W. Lange,  Ka Un Lao,  D. S. Levine,  Jie Liu,  
 S. C. McKenzie,  A. F. Morrison,  K. Nanda,  F. Plasser,  D. R. Rehn,  
 M. L. Vidal,  Zhi-Qiang You,  Ying Zhu,  B. Alam,  B. Albrecht,  
 A. Aldossary,  E. Alguire,  J. H. Andersen,  V. Athavale,  D. Barton,  
 K. Begam,  A. Behn,  N. Bellonzi,  Y. A. Bernard,  E. J. Berquist,  
 H. Burton,  A. Carreras,  K. Carter-Fenk,  Romit Chakraborty,  
 Chandrima Chakravarty,  Junhan Chen,  A. D. Chien,  K. D. Closser,  
 V. Cofer-Shabica,  L. Cunha,  S. Dasgupta,  Jia Deng,  M. de Wergifosse,  
 M. Diedenhofen,  Hainam Do,  S. Ehlert,  Po-Tung Fang,  S. Fatehi,  
 Qingguo Feng,  T. Friedhoff,  B. Ganoe,  J. Gayvert,  Qinghui Ge,  
 G. Gidofalvi,  M. Goldey,  J. Gomes,  C. Gonzalez-Espinoza,  S. Gulania,  
 A. Gunina,  J. A. Gyamfi,  M. W. D. Hanson-Heine,  P. H. P. Harbach,  
 A. W. Hauser,  M. F. Herbst,  M. Hernandez Vera,  M. Hodecker,  
 Z. C. Holden,  S. Houck,  Xunkun Huang,  Kerwin Hui,  B. C. Huynh,  
 K. Ikeda,  M. Ivanov,  Hyunjun Ji,  Zuxin Jin,  Hanjie Jiang,  B. Kaduk,  
 S. Kaehler,  R. Kang,  K. Khistyaev,  Jaehoon Kim,  Yongbin Kim,  
 P. Klunzinger,  Z. Koczor-Benda,  Joong Hoon Koh,  D. Kosenkov,  
 Saikiran Kotaru,  L. Koulias,  T. Kowalczyk,  C. M. Krauter,  K. Kue,  
 A. Kunitsa,  T. Kus,  A. Landau,  K. V. Lawler,  D. Lefrancois,  S. Lehtola,  
 Rain Li,  Shaozhi Li,  Yi-Pei Li,  Jiashu Liang,  M. Liebenthal,  
 Hung-Hsuan Lin,  You-Sheng Lin,  Fenglai Liu,  Kuan-Yu Liu,  
 M. Loipersberger,  A. Luenser,  C. Malbon,  A. Manjanath,  P. Manohar,  
 E. Mansoor,  S. F. Manzer,  Shan-Ping Mao,  A. V. Marenich,  T. Markovich,  
 S. Mason,  F. Matz,  S. A. Maurer,  P. F. McLaughlin,  M. F. S. J. Menger,  
 J.-M. Mewes,  S. A. Mewes,  P. Morgante,  Mohammad Mostafanejad,  
 J. W. Mullinax,  K. J. Oosterbaan,  G. Paran,  V. Parravicini,  
 Alexander C. Paul,  Suranjan K. Paul,  F. Pavosevic,  Zheng Pei,  S. Prager,  
 E. I. Proynov,  E. Ramos,  B. Rana,  A. E. Rask,  A. Rettig,  R. M. Richard,  
 F. Rob,  E. Rossomme,  T. Scheele,  M. Scheurer,  M. Schneider,  
 P. E. Schneider,  N. Sergueev,  S. M. Sharada,  Hengyuan Shen,  
 W. Skomorowski,  D. W. Small,  C. J. Stein,  Yingli Su,  Yu-Chuan Su,  
 E. J. Sundstrom,  Zhen Tao,  J. Thirman,  Hung-Yi Tsai,  T. Tsuchimochi,  
 N. M. Tubman,  C. Utku,  S. P. Veccham,  O. Vydrov,  J. Wenzel,  
 Jonathan Wong,  J. Witte,  A. Yamada,  Chou-Hsun Yang,  Kun Yao,  
 S. Yeganeh,  S. R. Yost,  A. Zech,  F. Zeller,  Igor Ying Zhang,  
 Xing Zhang,  Yu Zhang,  D. Zuev,  A. Aspuru-Guzik,  A. T. Bell,  
 N. A. Besley,  K. B. Bravaya,  B. R. Brooks,  D. Casanova,  Jeng-Da Chai,  
 Hsing-Ta Chen,  S. Coriani,  C. J. Cramer,  A. E. DePrince, III,  
 R. A. DiStasio Jr.,  A. Dreuw,  B. D. Dunietz,  T. R. Furlani,  
 W. A. Goddard III,  S. Grimme,  S. Hammes-Schiffer,  T. Head-Gordon,  
 W. J. Hehre,  Chao-Ping Hsu,  T.-C. Jagau,  Yousung Jung,  A. Klamt,  
 Jing Kong,  D. S. Lambrecht,  Xiangyuan Li,  WanZhen Liang,  N. J. Mayhall,  
 C. W. McCurdy,  J. B. Neaton,  T. Neudecker,  C. Ochsenfeld,  
 J. A. Parkhill,  R. Peverati,  V. A. Rassolov,  Haisheng Ren,  Yihan Shao,  
 L. V. Slipchenko,  R. P. Steele,  J. E. Subotnik,  A. J. W. Thom,  
 A. Tkatchenko,  D. G. Truhlar,  T. Van Voorhis,  Fan Wang,  
 T. A. Wesolowski,  K. B. Whaley,  H. L. Woodcock III,  P. M. Zimmerman,  
 S. Faraji,  P. M. W. Gill,  M. Head-Gordon,  J. M. Herbert,  A. I. Krylov

 Contributors to earlier versions of Q-Chem not listed above: 
 R. D. Adamson,  B. Austin,  R. Baer,  J. Baker,  G. J. O. Beran,  
 K. Brandhorst,  S. T. Brown,  E. F. C. Byrd,  Arup K. Chakraborty,  
 G. K. L. Chan,  Chun-Min Chang,  Yunqing Chen,  C.-L. Cheng,  
 Siu Hung Chien,  D. M. Chipman,  D. L. Crittenden,  H. Dachsel,  
 R. J. Doerksen,  A. D. Dutoi,  R. G. Edgar,  J. Fosso-Tande,  
 L. Fusti-Molnar,  D. Ghosh,  A. Ghysels,  A. Golubeva-Zadorozhnaya,  
 J. Gonthier,  M. S. Gordon,  S. R. Gwaltney,  G. Hawkins,  J. E. Herr,  
 A. Heyden,  S. Hirata,  E. G. Hohenstein,  G. Kedziora,  F. J. Keil,  
 C. Kelley,  Jihan Kim,  R. A. King,  R. Z. Khaliullin,  P. P. Korambath,  
 W. Kurlancheek,  A. Laurent,  A. M. Lee,  M. S. Lee,  S. V. Levchenko,  
 Ching Yeh Lin,  D. Liotard,  E. Livshits,  R. C. Lochan,  I. Lotan,  
 L. A. Martinez-Martinez,  P. E. Maslen,  N. Nair,  D. P. O'Neill,  
 D. Neuhauser,  E. Neuscamman,  C. M. Oana,  R. Olivares-Amaya,  R. Olson,  
 T. M. Perrine,  B. Peters,  P. A. Pieniazek,  A. Prociuk,  Y. M. Rhee,  
 J. Ritchie,  M. A. Rohrdanz,  E. Rosta,  N. J. Russ,  H. F. Schaefer III,  
 M. W. Schmidt,  N. E. Schultz,  S. Sharma,  N. Shenvi,  C. D. Sherrill,  
 A. C. Simmonett,  A. Sodt,  T. Stein,  D. Stuck,  K. S. Thanthiriwatte,  
 V. Vanovschi,  L. Vogt,  Tao Wang,  A. Warshel,  M. A. Watson,  
 C. F. Williams,  Q. Wu,  X. Xu,  Jun Yang,  W. Zhang,  Yan Zhao

   Please cite Q-Chem as follows:
  "Software for the frontiers of quantum chemistry:
   An overview of developments in the Q-Chem 5 package"
   J. Chem. Phys. 155, 084801 (2021)
   https://doi.org/10.1063/5.0055522 (open access)

 Q-Chem 6.0.0 for Intel X86 EM64T Linux

 Parts of Q-Chem use Armadillo 9.900.5 (Nocturnal Misbehaviour).
 http://arma.sourceforge.net/

 Q-Chem begins on Sun Feb  5 18:57:07 2023  

 Host: iqmol
0

     Scratch files written to /aimm/scratch/qchem342//
 Jul222 |scratch|qcdevops|jenkins|workspace|build_RNUM 6466   
 Processing $rem in /opt/qchem/qc600/config/preferences:
 Processing $rem in /home/epif/.qchemrc:

 Q-Chem warning in module libgen/rem_setup.C, line 3291:

 Neither GIA nor STOLL is specified by user. Use STOLL as the default


 Checking the input file for inconsistencies... 	...done.

--------------------------------------------------------------
User input:
--------------------------------------------------------------
$molecule
-1 1
--
-1 1
Cl   -1.1242249    0.0179827    0.0000000
--
0 1
O    1.9940516   -0.0909265    0.0000000
H    1.0163933   -0.2184602    0.0000000
H    2.0588108    0.8652887    0.0000000
$end

$rem
BASIS  =  def2-SVPD
EDA2  =  2
EDA_BSSE  =  1
GUI  =  0
JOB_TYPE  =  EDA
METHOD  =  wB97XV
$end

--------------------------------------------------------------
 ----------------------------------------------------------------
             Standard Nuclear Orientation (Angstroms)
    I     Atom           X                Y                Z
 ----------------------------------------------------------------
    1      Cl      1.1211360431    -0.0050973329     0.0000000000
    2      O      -1.9975565613     0.0911626449    -0.0000000000
    3      H      -1.0204236050     0.2226608649    -0.0000000000
    4      H      -2.0584366368    -0.8653073646     0.0000000000
 ----------------------------------------------------------------
 Molecular Point Group                 Cs    NOp =  2
 Largest Abelian Subgroup              Cs    NOp =  2
 Nuclear Repulsion Energy =          39.03648268 hartrees
 There are       14 alpha and       14 beta electrons
 Requested basis set is def2-SVPD
 There are 28 shells and 66 basis functions

 Total QAlloc Memory Limit   8000 MB
 Mega-Array Size       188 MB
 MEM_STATIC part       192 MB


                       Distance Matrix (Angstroms)
             Cl(  1)   O (  2)   H (  3)
   O (  2)  3.120178
   H (  3)  2.153637  0.985941
   H (  4)  3.293880  0.958406  1.503711
 
 A cutoff of  1.0D-12 yielded    399 shell pairs
 There are      2253 function pairs (      2543 Cartesian)
 Smallest overlap matrix eigenvalue = 2.18E-03

 Scale SEOQF with 1.000000e-01/1.000000e-01/1.000000e-01

 Standard Electronic Orientation quadrupole field applied
 Nucleus-field energy     =     0.0000000022 hartrees

 -----------------------------------------------------------------------
  General SCF calculation program by
  Eric Jon Sundstrom, Paul Horn, Yuezhi Mao, Dmitri Zuev, Alec White,
  David Stuck, Shaama M.S., Shane Yost, Joonho Lee, David Small,
  Daniel Levine, Susi Lehtola, Hugh Burton, Evgeny Epifanovsky,
  Bang C. Huynh
 -----------------------------------------------------------------------
================================================================
                 ALMO-EDA with the EDA2 driver                  
================================================================
 The second-generation ALMO-EDA (for DFT):                      
 P. R. Horn, Y. Mao and M. Head-Gordon, PCCP, 18, 23067 (2016)  
 Y. Mao et al. Annu. Rev. Phys. Chem. 72, 641 (2021)            
 Decomposition of the frozen energy:                            
 P. R. Horn, Y. Mao and M. Head-Gordon, JCP, 144, 114107 (2016) 
================================================================
 Using eda2 option set 2
 Option set summary: Frozen orbital wavefunction, initial wavefunction decomposition, and traditional AO-based POL.
--------------------------------
Printing EDA Options
--------------------------------
eda_child_super_basis      0
fragmo_guess_mode          0
child_mp                   0
child_mp_orders            0
cls_elec                   1
cls_disp                   0
scfmi_mode                 1
scfmi_occs                 0
scfmi_virts                0
frz_relax                  0
frz_relax_method           0
dc_pen_start               0
dc_pen_conv                0
dc_pen_increment           0
dc_pen_steps               0
dc_pen_thresh_factor       0
dc_pen_pre_newton_thresh   0
frz_ortho_decomp           1
frz_ortho_decomp_conv      6
plot_mo_ortho_frz          0
frgm_method                2
scfmi_freeze_ss            0
separate_rehyb             0
plot_diff_den              0
eda_nocv                   0
eda_vct_relax              1
disp_free_x                0
disp_free_c                0
eda_bsse                   1
eda_pct_a                  0
eda_covp                   0
--------------------------------
 Attempting to make child job directory: /aimm/scratch/qchem342//Frg1/
 Attempting to make child job directory: /aimm/scratch/qchem342//Frg2/
 Creating input file /aimm/scratch/qchem342/Frg1.input
 using default PutDataFrgm: nothing
 calling putenv with: QCSCRATCH=/aimm/scratch/qchem342/ 
 Spawning Job For Fragment 0
 Done Job For Fragment 0
 calling putenv with: QCSCRATCH=/aimm/scratch 
 calling putenv with: QCTHREADS=1 
 Creating input file /aimm/scratch/qchem342/Frg2.input
 using default PutDataFrgm: nothing
 calling putenv with: QCSCRATCH=/aimm/scratch/qchem342/ 
 Spawning Job For Fragment 1
 Done Job For Fragment 1
 calling putenv with: QCSCRATCH=/aimm/scratch 
 calling putenv with: QCTHREADS=1 
Doing General SCFMI
 Exchange:     0.1670 Hartree-Fock + 1.0000 wB97X-V + LR-HF
 Correlation:  1.0000 wB97X-V
 Using SG-2 standard quadrature grid
 Nonlocal Correlation:  VV10 with C = 0.0100 and b = 6.00 and scale = 1.00000
 Grid used for NLC:  SG-1 standard quadrature
performing fock build before subrot guess so that all methods have access
Printing subrot_rss_gen Method Specification:
Occupied Subspace Method is 0
Virtual Subspace Method is 0
Energy of the unrelaxed supersystem initial determinant -536.412560153415
write pseudocanon occs and virts to disk
write pseudocanon orbital energies to disk
Tolerance of ortho_decomp_scf: 1.00e-06
GDM subspace size: 20
Beginning the Orthogonal Decomposition of the Initial Supersystem Wavefunction
    1    -536.3364467804      3.57e-01     ortho_decomp Preconditoned Steepest Descent
    2    -536.3525014254      4.90e-03     ortho_decomp BFGS Step
    3    -536.3525218405      3.63e-04     ortho_decomp BFGS Step
    4    -536.3525219174      1.68e-05     ortho_decomp BFGS Step
    5    -536.3525219175      5.52e-07     ortho_decomp 00000 Convergence criterion met
 Hartree-Fock
 Hartree-Fock
 Hartree-Fock
Doing General SCFMI
 Exchange:     0.1670 Hartree-Fock + 1.0000 wB97X-V + LR-HF
 Correlation:  1.0000 wB97X-V
 Using SG-2 standard quadrature grid
 Nonlocal Correlation:  VV10 with C = 0.0100 and b = 6.00 and scale = 1.00000
 Grid used for NLC:  SG-1 standard quadrature
performing fock build at end of subrot_r(subrot) constructor so that all methods have access
<S^2> of initial wavefunction before polarization iterations 0.0000000000
Beginning iterations for the determination of the polarized wavefunction
Energy prior to optimization (guess energy) = -536.412560153416
Begin Timing: Total SCF Calculation
begin iterations for algorithm: DIIS         
the SCF tolerance is set to 1.00e-08
    1    -536.4125601534      1.48e-03     00000 
    2    -536.4177961842      4.70e-04     00000 
    3    -536.4182154505      1.83e-04     00000 
    4    -536.4182929630      9.84e-05     00000 
    5    -536.4183042522      6.58e-05     00000 
    6    -536.4183086244      2.59e-05     00000 
    7    -536.4183089152      1.14e-05     00000 
    8    -536.4183090535      3.90e-06     00000 
    9    -536.4183091069      1.43e-06     00000 
   10    -536.4183091153      4.56e-07     00000 
   11    -536.4183091161      1.03e-07     00000 
   12    -536.4183091162      3.71e-08     00000 
   13    -536.4183091162      1.31e-08     00000 
   14    -536.4183091162      3.72e-09     00000 Convergence criterion met
write pseudocanon occs and virts to disk
write pseudocanon orbital energies to disk
Timing for Total SCF: 15.00s (wall), 14.40s (cpu)
<S^2> of polarized wavefunction after polarization iterations 0.0000000000
relaxing scfmi constraint to allow all rotations in the entire AO span
Doing General SCFMI
 Exchange:     0.1670 Hartree-Fock + 1.0000 wB97X-V + LR-HF
 Correlation:  1.0000 wB97X-V
 Using SG-2 standard quadrature grid
 Nonlocal Correlation:  VV10 with C = 0.0100 and b = 6.00 and scale = 1.00000
 Grid used for NLC:  SG-1 standard quadrature
performing fock build at end of subrot_r(subrot) constructor so that all methods have access
<S^2> of polarized wavefunction before ct-allowed iterations 0.0000000000
Beginning iterations for the determination of the CT-Allowed wavefunction
Energy prior to optimization (guess energy) = -536.418309116204
Begin Timing: Total SCF Calculation
begin iterations for algorithm: DIIS         
the SCF tolerance is set to 1.00e-08
    1    -536.4183091162      2.27e-03     00000 
    2    -536.4250322304      2.55e-04     00000 
    3    -536.4253762479      7.79e-05     00000 
    4    -536.4253990851      4.97e-05     00000 
    5    -536.4254047079      1.29e-05     00000 
    6    -536.4254051136      3.38e-06     00000 
    7    -536.4254051766      5.27e-07     00000 
    8    -536.4254051783      1.42e-07     00000 
    9    -536.4254051785      3.03e-08     00000 
   10    -536.4254051784      7.06e-09     00000 Convergence criterion met
write pseudocanon occs and virts to disk
write pseudocanon orbital energies to disk
Timing for Total SCF: 10.00s (wall), 9.99s (cpu)
<S^2> of ct_allowed wavefunction after ct-allowed iterations 0.0000000000
 Attempting to make child job directory: /aimm/scratch/qchem342//FrgBSSE1/
 Attempting to make child job directory: /aimm/scratch/qchem342//FrgBSSE2/
 Creating input file /aimm/scratch/qchem342/FrgBSSE1.input
 calling putenv with: QCSCRATCH=/aimm/scratch/qchem342/ 
 Spawning Job For Fragment 0
 Done Job For Fragment 0
 calling putenv with: QCSCRATCH=/aimm/scratch 
 calling putenv with: QCTHREADS=1 
 Creating input file /aimm/scratch/qchem342/FrgBSSE2.input
 calling putenv with: QCSCRATCH=/aimm/scratch/qchem342/ 
 Spawning Job For Fragment 1
 Done Job For Fragment 1
 calling putenv with: QCSCRATCH=/aimm/scratch 
 calling putenv with: QCTHREADS=1 
====================================================================
   Evaluating the BSSE with fragment SCF in the supersystem basis
   Fragment contributions (kJ/mol) 
   Frgm 1: 1.4847
   Frgm 2: 0.4688
   BSSE (kJ/mol) = 1.9535
====================================================================

================================
        Results of EDA2         
================================
Basic EDA Quantities
--------------------
Fragment Energies (Ha):
1 -460.0529423442
2  -76.3470870124
--------------------
  E_prp (kJ/mol) = 0.0000
  E_frz (kJ/mol) = -32.9000
  E_pol (kJ/mol) = -15.0941
  E_vct (kJ/mol) = -16.6774 (CP-corrected)
  E_int (kJ/mol) = -64.6715 (CP-corrected)
--------------------


Decomposition of frozen interaction energy
--------------------
  --------------------
  Orthogonal Frozen Decomposition:
  --------------------
     E_elec   (ELEC)   (kJ/mol) = -119.8483
     E_pauli  (PAULI)  (kJ/mol) = 99.4947
     E_disp   (DISP)   (kJ/mol) = -12.5464
  --------------------
  Classical Frozen Decomposition:
  --------------------
     E_cls_elec  (CLS ELEC)  (kJ/mol) = -81.5197
     E_mod_pauli (MOD PAULI) (kJ/mol) = 61.1661 (FRZ - CLS ELEC - DISP)
     E_disp      (DISP)      (kJ/mol) = -12.5464
  --------------------
--------------------

Simplified EDA Summary (kJ/mol)
--------------------
 PREPARATION      0.0000
 FROZEN           -32.9000 (ELEC + PAULI + DISP)
[ELEC + PAULI = -20.3536, DISP = -12.5464]
 POLARIZATION    -15.0941
 CHARGE TRANSFER -16.6774     (counterpoise-corrected)
 TOTAL           -64.6715     (PRP + FRZ + POL + CT)
--------------------
 
 --------------------------------------------------------------
             Orbital Energies (a.u.) and Symmetries
 --------------------------------------------------------------
 
 Alpha MOs, Restricted
 -- Occupied --                  
-101.20  -19.05   -9.27   -7.02   -7.02   -7.02   -0.94   -0.63
  1 A'    2 A'    3 A'    4 A'    5 A'    1 A"    6 A'    7 A'                 
 -0.453  -0.333  -0.251  -0.158  -0.154  -0.153
  8 A'    9 A'    2 A"   10 A'   11 A'    3 A"                                 
 -- Virtual --                   
  0.237   0.290   0.294   0.300   0.317   0.338   0.352   0.376
 12 A'   13 A'   14 A'    4 A"   15 A'   16 A'    5 A"   17 A'                 
  0.439   0.451   0.461   0.499   0.502   0.527   0.532   0.588
 18 A'   19 A'    6 A"    7 A"   20 A'   21 A'    8 A"   22 A'                 
  0.611   0.656   0.665   0.679   0.775   0.824   0.825   0.863
 23 A'   24 A'    9 A"   25 A'   26 A'   27 A'   10 A"   28 A'                 
  0.893   0.919   1.124   1.196   1.306   1.336   1.340   1.359
 11 A"   29 A'   30 A'   31 A'   32 A'   12 A"   33 A'   13 A"                 
  1.361   1.392   1.399   1.456   1.558   1.596   1.775   1.831
 34 A'   35 A'   14 A"   36 A'   37 A'   15 A"   38 A'   39 A'                 
  1.956   2.036   2.117   2.257   2.282   2.553   2.675   3.292
 16 A"   40 A'   17 A"   41 A'   42 A'   43 A'   44 A'   18 A"                 
  3.341   3.499   3.917   4.343
 19 A"   45 A'   46 A'   47 A'                                                 
 
 Beta MOs, Restricted
 -- Occupied --                  
-101.20  -19.05   -9.27   -7.02   -7.02   -7.02   -0.94   -0.63
  1 A'    2 A'    3 A'    4 A'    5 A'    1 A"    6 A'    7 A'                 
 -0.453  -0.333  -0.251  -0.158  -0.154  -0.153
  8 A'    9 A'    2 A"   10 A'   11 A'    3 A"                                 
 -- Virtual --                   
  0.237   0.290   0.294   0.300   0.317   0.338   0.352   0.376
 12 A'   13 A'   14 A'    4 A"   15 A'   16 A'    5 A"   17 A'                 
  0.439   0.451   0.461   0.499   0.502   0.527   0.532   0.588
 18 A'   19 A'    6 A"    7 A"   20 A'   21 A'    8 A"   22 A'                 
  0.611   0.656   0.665   0.679   0.775   0.824   0.825   0.863
 23 A'   24 A'    9 A"   25 A'   26 A'   27 A'   10 A"   28 A'                 
  0.893   0.919   1.124   1.196   1.306   1.336   1.340   1.359
 11 A"   29 A'   30 A'   31 A'   32 A'   12 A"   33 A'   13 A"                 
  1.361   1.392   1.399   1.456   1.558   1.596   1.775   1.831
 34 A'   35 A'   14 A"   36 A'   37 A'   15 A"   38 A'   39 A'                 
  1.956   2.036   2.117   2.257   2.282   2.553   2.675   3.292
 16 A"   40 A'   17 A"   41 A'   42 A'   43 A'   44 A'   18 A"                 
  3.341   3.499   3.917   4.343
 19 A"   45 A'   46 A'   47 A'                                                 
 --------------------------------------------------------------
 
          Ground-State Mulliken Net Atomic Charges

     Atom                 Charge (a.u.)
  ----------------------------------------
      1 Cl                   -0.969120
      2 O                    -0.270290
      3 H                     0.142172
      4 H                     0.097237
  ----------------------------------------
  Sum of atomic charges =    -1.000000

 -----------------------------------------------------------------
                    Cartesian Multipole Moments
 -----------------------------------------------------------------
    Charge (ESU x 10^10)
                -4.8032
    Dipole Moment (Debye)
         X      -2.4273      Y      -1.2482      Z      -0.0000
       Tot       2.7294
    Quadrupole Moments (Debye-Ang)
        XX     -36.4465     XY       3.4077     YY     -22.8250
        XZ       0.0000     YZ       0.0000     ZZ     -25.1092
    Octopole Moments (Debye-Ang^2)
       XXX      -2.6471    XXY      -8.0087    XYY      -7.6817
       YYY      -1.4644    XXZ      -0.0000    XYZ      -0.0000
       YYZ      -0.0000    XZZ      -3.1216    YZZ      -0.1207
       ZZZ      -0.0000
    Hexadecapole Moments (Debye-Ang^3)
      XXXX    -374.8534   XXXY      19.2172   XXYY     -56.2089
      XYYY       4.1666   YYYY     -37.7311   XXXZ       0.0000
      XXYZ       0.0000   XYYZ       0.0000   YYYZ       0.0000
      XXZZ     -65.3673   XYZZ       0.6100   YYZZ     -12.9279
      XZZZ       0.0000   YZZZ       0.0000   ZZZZ     -38.5616
 -----------------------------------------------------------------
 Total job time:  77.94s(wall), 40.51s(cpu) 
 Sun Feb  5 18:58:25 2023

        *************************************************************
        *                                                           *
        *  Thank you very much for using Q-Chem.  Have a nice day.  *
        *                                                           *
        *************************************************************


