Jobname.Temp
FOPT      R                             6-31G               
Number of atoms                            I                8
Charge                                     I                0
Multiplicity                               I                1
Number of electrons                        I               32
Number of alpha electrons                  I               16
Number of beta electrons                   I               16
Atomic numbers                             I   N=           8
           1           6           1           1           6           8
           8           1
Current cartesian coordinates              R   N=          24
 -3.27416778E+00 -1.26964297E+00  1.67679112E+00 -2.68891904E+00 -1.97187787E-01
  2.50104471E-05 -3.27417264E+00 -1.27336863E+00 -1.67463567E+00 -3.71471645E+00
  1.60508966E+00 -2.09930531E-03  1.08959906E-01  2.19288782E-01 -6.73222467E-05
  1.28151060E+00  2.19952632E+00  1.52987596E-05  1.52695775E+00 -1.91300096E+00
  5.04274280E-05  3.27506488E+00 -1.48688695E+00 -3.28083933E-04
Nuclear charges                            R   N=           8
  1.00000000E+00  6.00000000E+00  1.00000000E+00  1.00000000E+00  6.00000000E+00
  8.00000000E+00  8.00000000E+00  1.00000000E+00
Number of basis functions                  I               44
Number of contracted shells                I               20
Number of primitive shells                 I               56
Highest angular momentum                   I                1
Largest degree of contraction              I                6
Shell types                                I   N=          20
           0           0           0          -1          -1           0
           0           0           0           0          -1          -1
           0          -1          -1           0          -1          -1
           0           0
Number of primitives per shell             I   N=          20
           3           1           6           3           1           3
           1           3           1           6           3           1
           6           3           1           6           3           1
           3           1
Shell to atom map                          I   N=          20
           1           1           2           2           2           3
           3           4           4           5           5           5
           6           6           6           7           7           7
           8           8
Primitive exponents                        R   N=          56
  1.87311370E+01  2.82539370E+00  6.40121700E-01  1.61277800E-01  3.04752490E+03
  4.57369510E+02  1.03948690E+02  2.92101550E+01  9.28666300E+00  3.16392700E+00
  7.86827240E+00  1.88128850E+00  5.44249300E-01  1.68714400E-01  1.87311370E+01
  2.82539370E+00  6.40121700E-01  1.61277800E-01  1.87311370E+01  2.82539370E+00
  6.40121700E-01  1.61277800E-01  3.04752490E+03  4.57369510E+02  1.03948690E+02
  2.92101550E+01  9.28666300E+00  3.16392700E+00  7.86827240E+00  1.88128850E+00
  5.44249300E-01  1.68714400E-01  5.48467170E+03  8.25234950E+02  1.88046960E+02
  5.29645000E+01  1.68975700E+01  5.79963530E+00  1.55396160E+01  3.59993360E+00
  1.01376180E+00  2.70005800E-01  5.48467170E+03  8.25234950E+02  1.88046960E+02
  5.29645000E+01  1.68975700E+01  5.79963530E+00  1.55396160E+01  3.59993360E+00
  1.01376180E+00  2.70005800E-01  1.87311370E+01  2.82539370E+00  6.40121700E-01
  1.61277800E-01
Contraction coefficients                   R   N=          56
  3.34945995E-02  2.34726947E-01  8.13757318E-01  1.00000000E+00  1.83470016E-03
  1.40373012E-02  6.88426061E-02  2.32184421E-01  4.67941342E-01  3.62312032E-01
 -1.19332409E-01 -1.60854212E-01  1.14345648E+00  1.00000000E+00  3.34945995E-02
  2.34726947E-01  8.13757318E-01  1.00000000E+00  3.34945995E-02  2.34726947E-01
  8.13757318E-01  1.00000000E+00  1.83470016E-03  1.40373012E-02  6.88426061E-02
  2.32184421E-01  4.67941342E-01  3.62312032E-01 -1.19332409E-01 -1.60854212E-01
  1.14345648E+00  1.00000000E+00  1.83109981E-03  1.39500985E-02  6.84450927E-02
  2.32714275E-01  4.70192950E-01  3.58520862E-01 -1.10777504E-01 -1.48026305E-01
  1.13076704E+00  1.00000000E+00  1.83109981E-03  1.39500985E-02  6.84450927E-02
  2.32714275E-01  4.70192950E-01  3.58520862E-01 -1.10777504E-01 -1.48026305E-01
  1.13076704E+00  1.00000000E+00  3.34945995E-02  2.34726947E-01  8.13757318E-01
  1.00000000E+00
P(S=P) Contraction coefficients            R   N=          56
  0.00000000E+00  0.00000000E+00  0.00000000E+00  0.00000000E+00  0.00000000E+00
  0.00000000E+00  0.00000000E+00  0.00000000E+00  0.00000000E+00  0.00000000E+00
  6.89990956E-02  3.16423980E-01  7.44308252E-01  1.00000000E+00  0.00000000E+00
  0.00000000E+00  0.00000000E+00  0.00000000E+00  0.00000000E+00  0.00000000E+00
  0.00000000E+00  0.00000000E+00  0.00000000E+00  0.00000000E+00  0.00000000E+00
  0.00000000E+00  0.00000000E+00  0.00000000E+00  6.89990956E-02  3.16423980E-01
  7.44308252E-01  1.00000000E+00  0.00000000E+00  0.00000000E+00  0.00000000E+00
  0.00000000E+00  0.00000000E+00  0.00000000E+00  7.08742995E-02  3.39752798E-01
  7.27158595E-01  1.00000000E+00  0.00000000E+00  0.00000000E+00  0.00000000E+00
  0.00000000E+00  0.00000000E+00  0.00000000E+00  7.08742995E-02  3.39752798E-01
  7.27158595E-01  1.00000000E+00  0.00000000E+00  0.00000000E+00  0.00000000E+00
  0.00000000E+00
Coordinates of each shell                  R   N=          60
 -3.27416778E+00 -1.26964297E+00  1.67679112E+00 -3.27416778E+00 -1.26964297E+00
  1.67679112E+00 -2.68891904E+00 -1.97187787E-01  2.50104471E-05 -2.68891904E+00
 -1.97187787E-01  2.50104471E-05 -2.68891904E+00 -1.97187787E-01  2.50104471E-05
 -3.27417264E+00 -1.27336863E+00 -1.67463567E+00 -3.27417264E+00 -1.27336863E+00
 -1.67463567E+00 -3.71471645E+00  1.60508966E+00 -2.09930531E-03 -3.71471645E+00
  1.60508966E+00 -2.09930531E-03  1.08959906E-01  2.19288782E-01 -6.73222467E-05
  1.08959906E-01  2.19288782E-01 -6.73222467E-05  1.08959906E-01  2.19288782E-01
 -6.73222467E-05  1.28151060E+00  2.19952632E+00  1.52987596E-05  1.28151060E+00
  2.19952632E+00  1.52987596E-05  1.28151060E+00  2.19952632E+00  1.52987596E-05
  1.52695775E+00 -1.91300096E+00  5.04274280E-05  1.52695775E+00 -1.91300096E+00
  5.04274280E-05  1.52695775E+00 -1.91300096E+00  5.04274280E-05  3.27506488E+00
 -1.48688695E+00 -3.28083933E-04  3.27506488E+00 -1.48688695E+00 -3.28083933E-04
Current cartesian coordinates              R   N=          24
 -3.27416778E+00 -1.26964297E+00  1.67679112E+00 -2.68891904E+00 -1.97187787E-01
  2.50104471E-05 -3.27417264E+00 -1.27336863E+00 -1.67463567E+00 -3.71471645E+00
  1.60508966E+00 -2.09930531E-03  1.08959906E-01  2.19288782E-01 -6.73222467E-05
  1.28151060E+00  2.19952632E+00  1.52987596E-05  1.52695775E+00 -1.91300096E+00
  5.04274280E-05  3.27506488E+00 -1.48688695E+00 -3.28083933E-04
Overlap Matrix                             R   N=         990
  1.00000000E+00  6.58292049E-01  1.00000000E+00  3.16232562E-02  9.13241533E-02
  1.00000000E+00  2.68759975E-01  4.72582979E-01  2.19058872E-01  1.00000000E+00
 -1.02785051E-01 -7.49205463E-02  2.70681790E-16 -2.44085565E-17  1.00000000E+00
 -1.88351302E-01 -1.37290222E-01  1.33240298E-18  2.34980476E-18  1.12709343E-32
  1.00000000E+00  2.94484175E-01  2.14651013E-01 -2.94660355E-21 -2.07769796E-22
 -6.66890637E-37 -4.16806648E-38  1.00000000E+00  3.73898111E-01  7.00969798E-01
  1.84261053E-01  8.12273068E-01  0.00000000E+00 -2.38884734E-17  2.71472317E-21
  1.00000000E+00 -1.45105720E-01 -1.64708789E-01  2.32196601E-17  0.00000000E+00
  5.69754058E-01  0.00000000E+00  0.00000000E+00  0.00000000E+00  1.00000000E+00
 -2.65902980E-01 -3.01825165E-01  1.14020306E-18 -2.04330096E-17  0.00000000E+00
  5.69754058E-01 -6.64897596E-38  0.00000000E+00  0.00000000E+00  1.00000000E+00
  4.15734954E-01  4.71898701E-01 -4.74600300E-22  2.54525605E-21  0.00000000E+00
 -6.64897596E-38  5.69754058E-01  0.00000000E+00  0.00000000E+00  0.00000000E+00
  1.00000000E+00  1.89399982E-02  1.50777195E-01  3.16062167E-02  2.68684115E-01
 -1.02752758E-01 -1.88944672E-01 -2.94019557E-01  3.73849507E-01 -1.45088000E-01
 -2.66791912E-01 -4.15158781E-01  1.00000000E+00  1.50777195E-01  4.04241742E-01
  9.13105761E-02  4.72527921E-01 -7.49120681E-02 -1.37750426E-01 -2.14355445E-01
  7.00914626E-01 -1.64697195E-01 -3.02849851E-01 -4.71269067E-01  6.58292049E-01
  1.00000000E+00  1.86638113E-02  1.49895958E-01  3.16903205E-02  2.69058348E-01
 -1.80385526E-01  3.16928823E-01 -3.73558962E-04  3.74089211E-01 -2.54465147E-01
  4.47083207E-01 -5.26969865E-04  1.86629850E-02  1.49893310E-01  1.00000000E+00
  1.49895958E-01  4.02785028E-01  9.13775382E-02  4.72799447E-01 -1.31380051E-01
  2.30828525E-01 -2.72073910E-04  7.01186693E-01 -2.88783417E-01  5.07378781E-01
 -5.98039298E-04  1.49893310E-01  4.02780646E-01  6.58292049E-01  1.00000000E+00
  3.74918815E-05  1.37273866E-02  4.19359772E-07  9.27719937E-03  2.21893419E-02
  3.30298099E-03 -7.32269605E-07  5.01289987E-02  1.11078508E-01  1.65345238E-02
 -3.66569750E-06  3.74208386E-05  1.37199817E-02  3.61497460E-05  1.35857540E-02
  1.00000000E+00  7.32817436E-03  1.06517728E-01  9.27719937E-03  1.37025343E-01
  2.03678550E-01  3.03184466E-02 -6.72158785E-06  2.95885072E-01  5.09986721E-01
  7.59137630E-02 -1.68300518E-05  7.32068180E-03  1.06472417E-01  7.18549507E-03
  1.05650173E-01  2.19058872E-01  1.00000000E+00 -1.32255894E-02 -9.24235028E-02
 -2.21893419E-02 -2.03678550E-01 -2.64853125E-01 -5.03442115E-02  1.11612922E-05
 -2.27856317E-01 -2.10347204E-01 -6.08244021E-02  1.34847463E-05 -1.32118650E-02
 -9.23830899E-02 -1.46520959E-02 -1.03581535E-01 -1.58744875E-17 -1.66641934E-17
  1.00000000E+00 -5.82064936E-03 -4.06760551E-02 -3.30298099E-03 -3.03184466E-02
 -5.03442115E-02  6.58640452E-02  1.66140735E-06 -3.39174135E-02 -6.08244021E-02
  1.89215596E-01  2.00726371E-06 -5.82915032E-03 -4.07599470E-02  5.31030489E-03
  3.75406726E-02 -3.10229580E-18 -1.82431765E-17  6.46044359E-34  1.00000000E+00
  6.55530719E-03  4.58100154E-02  7.32269605E-07  6.72158785E-06  1.11612922E-05
  1.66140735E-06  7.33580018E-02  7.51947741E-06  1.34847463E-05  2.00726371E-06
  1.98269575E-01 -6.53955193E-03 -4.57273832E-02 -7.78643583E-06 -5.50454341E-05
 -2.87196219E-21 -6.53474612E-21  0.00000000E+00 -8.29969183E-37  1.00000000E+00
  7.15796553E-02  2.56971411E-01  5.01289987E-02  2.95885072E-01  2.27856317E-01
  3.39174135E-02 -7.51947741E-06  5.09161089E-01  5.85140561E-01  8.71007422E-02
 -1.93102008E-05  7.15460395E-02  2.56897976E-01  7.09362888E-02  2.55563590E-01
  1.84261053E-01  8.12273068E-01  1.19442367E-17  2.38884734E-17  0.00000000E+00
  1.00000000E+00 -1.59795000E-01 -3.49044006E-01 -1.11078508E-01 -5.09986721E-01
 -2.10347204E-01 -6.08244021E-02  1.34847463E-05 -5.85140561E-01 -1.63296967E-01
 -1.00098335E-01  2.21917620E-05 -1.59719990E-01 -3.48944762E-01 -1.78975899E-01
 -3.92335037E-01 -1.92477578E-18  1.02165048E-17  5.69754058E-01  2.72342056E-34
  0.00000000E+00  0.00000000E+00  1.00000000E+00 -7.03265948E-02 -1.53616048E-01
 -1.65345238E-02 -7.59137630E-02 -6.08244021E-02  1.89215596E-01  2.00726371E-06
 -8.71007422E-02 -1.00098335E-01  4.94261012E-01  3.30334123E-06 -7.04693719E-02
 -1.53956423E-01  6.48655728E-02  1.42192536E-01 -3.34815764E-20  2.04330096E-17
  2.72342056E-34  5.69754058E-01  0.00000000E+00  0.00000000E+00  0.00000000E+00
  1.00000000E+00  7.92029213E-02  1.73004818E-01  3.66569750E-06  1.68300518E-05
  1.34847463E-05  2.00726371E-06  1.98269575E-01  1.93102008E-05  2.21917620E-05
  3.30334123E-06  5.09161088E-01 -7.90575113E-02 -1.72719173E-01 -9.51116048E-05
 -2.08495195E-04 -1.17592174E-24  0.00000000E+00  0.00000000E+00  0.00000000E+00
  5.69754058E-01  0.00000000E+00  0.00000000E+00  0.00000000E+00  1.00000000E+00
  1.93987518E-10  4.15184710E-04  9.15718975E-21  5.42438582E-06  1.92547759E-05
  1.16229721E-05 -4.70972623E-11  3.41592858E-03  1.09169067E-02  6.58989244E-03
 -2.67027993E-08  1.91875057E-10  4.13953093E-04  7.89006837E-08  2.11181713E-03
  2.45752045E-06  2.05926313E-02  2.19278083E-02  3.70323171E-02  1.54509105E-06
  4.98429076E-02  4.70550863E-02  7.94679912E-02  3.31562516E-06  1.00000000E+00
  7.58793696E-07  4.36591344E-03  2.26526565E-08  5.88365014E-04  1.45764921E-03
  8.79896823E-04 -3.56541605E-09  2.79578243E-02  7.76631993E-02  4.68806910E-02
 -1.89964510E-07  7.53221779E-07  4.35457352E-03  4.28676647E-05  1.81195434E-02
  7.84247649E-03  1.69404110E-01  1.37423140E-01  2.32084175E-01  9.68319594E-06
  2.86451449E-01  2.34429104E-01  3.95910653E-01  1.65184913E-05  2.33689906E-01
  1.00000000E+00 -1.73497130E-06 -3.96440070E-03 -8.87764531E-08 -1.08022601E-03
 -2.45784549E-03 -1.62870379E-03  6.59964495E-09 -2.35866718E-02 -5.21275196E-02
 -4.01966610E-02  1.62880257E-07 -1.72222621E-06 -3.95397627E-03 -1.08062945E-04
 -1.84042512E-02 -9.59547781E-03 -1.02507171E-01 -6.11089905E-03 -1.59240715E-01
 -6.64396460E-06 -7.45574243E-02  9.24763047E-02 -1.05261425E-01 -4.39179882E-06
 -3.39853672E-17  0.00000000E+00  1.00000000E+00 -1.32118834E-06 -3.01890872E-03
 -5.35891066E-08 -6.52068707E-04 -1.62870379E-03 -7.42864712E-04  3.98381626E-09
 -1.42378821E-02 -4.01966610E-02 -9.80152911E-03  9.83212005E-08 -1.31288994E-06
 -3.01420083E-03 -1.28570170E-05 -2.18968464E-03 -1.62051205E-02 -1.73117076E-01
 -1.59240715E-01 -1.80750613E-01 -1.12205197E-05 -1.25914735E-01 -1.05261425E-01
 -2.29641794E-02 -7.41699692E-06  5.04841718E-18  6.92595308E-17  0.00000000E+00
  1.00000000E+00  6.38578429E-07  1.45914850E-03  2.17147574E-13  2.64223733E-09
  6.59964495E-09  3.98381626E-09  2.40287665E-04  5.76930976E-08  1.62880257E-07
  9.83212005E-08  1.44628234E-02 -6.33083479E-07 -1.45346589E-03 -4.57365808E-08
 -7.78941870E-06 -6.76122607E-07 -7.22292492E-06 -6.64396460E-06 -1.12205197E-05
  8.81797133E-02 -5.25351224E-06 -4.39179882E-06 -7.41699692E-06  1.54804361E-01
  4.23015048E-23  5.27985710E-22  0.00000000E+00  0.00000000E+00  1.00000000E+00
  8.38802403E-04  2.61524898E-02  1.06348679E-03  2.09042507E-02  2.87272186E-02
  1.73409269E-02 -7.02668965E-08  1.02859369E-01  2.06477576E-01  1.24638330E-01
 -5.05045013E-07  8.35798448E-04  2.61029290E-02  6.00277410E-03  7.38791244E-02
  6.58184630E-02  3.70431104E-01  1.70542254E-01  2.88016693E-01  1.20168558E-05
  5.53768417E-01  3.28285231E-01  5.54417596E-01  2.31318409E-05  1.67279760E-01
  7.63640773E-01  2.39256896E-16  0.00000000E+00  0.00000000E+00  1.00000000E+00
 -2.80878094E-03 -4.63014174E-02 -4.12869224E-03 -5.70792278E-02 -6.65897679E-02
 -4.86015178E-02  1.96937445E-07 -1.63215885E-01 -2.27555528E-01 -1.97774452E-01
  8.01398739E-07 -2.79870860E-03 -4.62137223E-02 -2.21394283E-02 -1.43447207E-01
 -7.57125976E-02 -2.93138997E-01  1.35752999E-01 -2.43451518E-01 -1.01574730E-05
 -2.59502099E-01  3.84968781E-01 -2.59806311E-01 -1.08398404E-05 -2.87576520E-18
  1.92011415E-16  5.01520641E-01  0.00000000E+00  0.00000000E+00  0.00000000E+00
  1.00000000E+00 -2.13889915E-03 -3.52587347E-02 -2.49224790E-03 -3.44553620E-02
 -4.86015178E-02 -1.54136919E-02  1.18879515E-07 -9.85237992E-02 -1.97774452E-01
 -1.93044109E-02  4.83757134E-07 -2.13351553E-03 -3.52297107E-02 -2.63408522E-03
 -1.70669343E-02 -1.27865625E-01 -4.95061620E-01 -2.43451518E-01 -1.31240925E-01
 -1.71542343E-05 -4.38254652E-01 -2.59806311E-01  1.00038511E-01 -1.83066361E-05
  0.00000000E+00  0.00000000E+00  0.00000000E+00  5.01520641E-01  0.00000000E+00
  0.00000000E+00  0.00000000E+00  1.00000000E+00  1.03380783E-03  1.70418302E-02
  1.00987984E-08  1.39616029E-07  1.96937445E-07  1.18879515E-07  1.39241768E-02
  3.99226734E-07  8.01398739E-07  4.83757134E-07  1.00080356E-01 -1.02879411E-03
 -1.69879798E-02 -9.37029574E-06 -6.07126224E-05 -5.33490879E-06 -2.06553448E-05
 -1.01574730E-05 -1.71542343E-05  2.79907041E-01 -1.82852005E-05 -1.08398404E-05
 -1.83066361E-05  5.38806926E-01  1.07168862E-26  0.00000000E+00  0.00000000E+00
  0.00000000E+00  5.01520641E-01  0.00000000E+00  0.00000000E+00  0.00000000E+00
  1.00000000E+00  4.49627295E-08  1.81418043E-03  4.62312719E-20  8.09841992E-06
  3.05338513E-05 -1.24269249E-05  1.84084677E-10  3.89306585E-03  1.32110918E-02
 -5.37676177E-03  7.96479792E-08  4.52695568E-08  1.81751728E-03  1.63149744E-11
  2.11977971E-04  1.82402092E-07  1.08313823E-02  1.38591694E-02 -2.08404863E-02
  1.15085696E-06  4.04610144E-02  4.61928401E-02 -6.94616845E-02  3.83582522E-06
  5.41381010E-23  1.22838049E-07  3.37496585E-08 -5.65483816E-07  4.83028857E-12
  1.97778056E-03  4.88236946E-04 -8.18052993E-03  6.98770134E-08  1.00000000E+00
  2.94144940E-05  1.58654599E-02  4.17489105E-08  7.77974673E-04  2.04650473E-03
 -8.32903789E-04  1.23381147E-08  3.13225059E-02  9.23794712E-02 -3.75973779E-02
  5.56943993E-07  2.95488158E-05  1.58909772E-02  1.43148379E-07  2.42348135E-03
  2.82538586E-03  1.10506834E-01  1.04557897E-01 -1.57227130E-01  8.68242389E-06
  2.39073551E-01  2.36663087E-01 -3.55878025E-01  1.96523582E-05  1.22838049E-07
  2.34235492E-04  3.73258653E-05 -6.25404040E-04  5.34211926E-09  2.13891319E-02
  4.27327267E-03 -7.15997330E-02  6.11595525E-07  2.33689906E-01  1.00000000E+00
 -7.11891581E-05 -1.54548307E-02 -1.73866891E-07 -1.51992557E-03 -3.71622211E-03
  1.64208325E-03 -2.43247922E-08 -2.81113245E-02 -6.80467620E-02  3.43011718E-02
 -5.08116062E-07 -7.15150485E-05 -1.54800714E-02 -3.76343936E-07 -2.51357968E-03
 -4.13568712E-03 -7.97745805E-02 -2.86997429E-02  1.24835485E-01 -6.89368688E-06
 -7.49628793E-02  5.29371071E-02  1.13934299E-01 -6.29169969E-06 -3.37496585E-08
 -3.73258653E-05  9.15096976E-05  1.00012484E-04 -8.54293517E-10 -1.60779075E-03
  1.22781443E-02  5.49703881E-03 -4.69549843E-08 -2.11417723E-16 -7.13807243E-16
  1.00000000E+00  9.53945340E-06  2.07097037E-03  7.07618168E-08  6.18592156E-04
  1.64208325E-03 -3.49813964E-04  9.89990949E-09  1.14409844E-02  3.43011718E-02
  2.27351196E-03  2.06797369E-07  9.52761816E-06  2.06233810E-03  2.52593354E-07
  1.68705661E-03  6.21896798E-03  1.19959646E-01  1.24835485E-01 -1.33401874E-01
  1.03662624E-05  1.12724133E-01  1.13934299E-01 -4.26219712E-02  9.46103460E-06
  5.65483816E-07  6.25404040E-04  1.00012484E-04 -1.57825501E-03  1.43138977E-08
  2.69389289E-02  5.49703881E-03 -7.94980123E-02  7.86742294E-07 -2.19025699E-17
  1.38446361E-16 -3.78744711E-31  1.00000000E+00  2.48620366E-05  5.39743097E-03
 -1.04822121E-12 -9.16343652E-09 -2.43247922E-08  9.89990949E-09  3.18494955E-04
 -1.69479573E-07 -5.08116062E-07  2.06797369E-07  1.62336927E-02 -2.49452208E-05
 -5.39961598E-03 -1.54347418E-10 -1.03087760E-06 -3.43424932E-07 -6.62443242E-06
 -6.89368688E-06  1.03662624E-05  5.43173278E-02 -6.22487169E-06 -6.29169969E-06
  9.46103460E-06  1.28704760E-01 -4.83028857E-12 -5.34211926E-09 -8.54293517E-10
  1.43138977E-08  9.74787228E-05 -2.30108796E-07 -4.69549843E-08  7.86742294E-07
  1.26062230E-02 -2.85689978E-21 -4.22504763E-21  1.15583713E-35 -6.59684750E-36
  1.00000000E+00  4.99305319E-03  6.70505753E-02  1.30016650E-03  2.40764379E-02
  3.52664324E-02 -1.43530307E-02  2.12616801E-07  1.11663124E-01  2.38006720E-01
 -9.68659866E-02  1.43491202E-06  5.00418666E-03  6.71292824E-02  3.72646228E-04
  1.70254387E-02  4.77267123E-02  2.96860741E-01  1.62895548E-01 -2.44951364E-01
  1.35267468E-05  4.85799371E-01  3.48276405E-01 -5.23714621E-01  2.89206599E-05
  1.97778056E-03  2.13891319E-02  1.60779075E-03 -2.69389289E-02  2.30108796E-07
  1.01122656E-01  1.28971279E-02 -2.16094546E-01  1.84585126E-06  1.67279760E-01
  7.63640773E-01 -1.63663542E-17 -2.22890541E-16  4.12415479E-21  1.00000000E+00
 -1.76872483E-02 -1.25104738E-01 -5.36041119E-03 -6.97693365E-02 -8.89256818E-02
  4.27436541E-02 -6.33177704E-07 -1.88138965E-01 -2.92366506E-01  1.63207563E-01
 -2.41765455E-06 -1.77268116E-02 -1.25251719E-01 -1.43402903E-03 -3.46813924E-02
 -6.63758777E-02 -2.84770379E-01  5.49393832E-02  2.49829275E-01 -1.37961157E-05
 -2.75304672E-01  2.75304447E-01  2.96791414E-01 -1.63894671E-05 -4.88236946E-04
 -4.27327267E-03  1.22781443E-02  5.49703881E-03 -4.69549843E-08 -1.28971279E-02
  9.94777633E-02  2.75605796E-02 -2.35418855E-07 -2.22563864E-17  3.37195016E-18
  5.01520641E-01 -3.77666718E-33  0.00000000E+00  0.00000000E+00  1.00000000E+00
  2.37011766E-03  1.67642216E-02  2.18162545E-03  2.83953142E-02  4.27436541E-02
 -1.29761211E-03  2.57696013E-07  7.65703858E-02  1.63207563E-01  4.22226622E-02
  9.83957482E-07  2.36166088E-03  1.66867055E-02  9.62487153E-04  2.32773492E-02
  9.98115782E-02  4.28218533E-01  2.49829275E-01 -1.54597652E-01  2.07456704E-05
  4.13984640E-01  2.96791414E-01  2.63792850E-02  2.46453777E-05  8.18052993E-03
  7.15997330E-02  5.49703881E-03 -7.94980123E-02  7.86742294E-07  2.16094546E-01
  2.75605796E-02 -3.60661623E-01  3.94450072E-06 -3.50463292E-17 -1.95383365E-16
 -3.77666718E-33  5.01520641E-01 -1.68488901E-36  0.00000000E+00  0.00000000E+00
  1.00000000E+00  6.17707844E-03  4.36914646E-02 -3.23172321E-08 -4.20630389E-07
 -6.33177704E-07  2.57696013E-07  1.60985615E-02 -1.13426571E-06 -2.41765455E-06
  9.83957482E-07  1.08646255E-01 -6.18330322E-03 -4.36891514E-02 -5.88128724E-07
 -1.42236472E-05 -5.51181233E-06 -2.36471583E-05 -1.37961157E-05  2.07456704E-05
  2.21078799E-01 -2.28611318E-05 -1.63894671E-05  2.46453777E-05  4.72674239E-01
 -6.98770134E-08 -6.11595525E-07 -4.69549843E-08  7.86742294E-07  1.26062230E-02
 -1.84585126E-06 -2.35418855E-07  3.94450072E-06  1.01122656E-01  9.91104988E-22
  6.23885075E-21  0.00000000E+00 -1.68488901E-36  5.01520641E-01  0.00000000E+00
  0.00000000E+00  0.00000000E+00  1.00000000E+00  2.89332072E-07  1.67860278E-03
  4.99140745E-10  1.62296635E-05  5.02787000E-05 -1.08726647E-05 -2.97672271E-09
  4.33438431E-03  1.69576972E-02 -3.66706687E-03 -1.00397111E-06  2.90349195E-07
  1.68099322E-03  5.02271667E-09  3.24904708E-04  2.61447074E-04  2.08440656E-02
  3.60480125E-02 -1.94258385E-02 -2.96892889E-06  1.15668856E-01  2.41970402E-01
 -1.30394927E-01 -1.99287802E-05  7.46293298E-06  8.93985346E-04  9.13170512E-04
 -1.68860408E-03 -1.57290399E-07  2.66436628E-02  3.94142364E-02 -7.28834752E-02
 -6.78896319E-06  3.57890314E-02  2.52738930E-01  2.82692210E-01  6.89083110E-02
 -6.12103293E-05  4.30681768E-01  5.68187626E-01  1.38499924E-01 -1.23027627E-04
  1.00000000E+00  1.67860278E-03  2.49864659E-02  5.43149132E-04  8.26489131E-03
  1.18779061E-02 -2.56857257E-03 -7.03224881E-07  4.64014862E-02  1.11108003E-01
 -2.40268754E-02 -6.57808808E-06  1.68099322E-03  2.50085669E-02  3.24904708E-04
  8.99836754E-03  2.38158777E-02  1.64419102E-01  1.35424265E-01 -7.29785007E-02
 -1.11535972E-05  3.44048560E-01  4.37342862E-01 -2.35678786E-01 -3.60197350E-05
  7.19669103E-03  5.29096193E-02  2.18133173E-02 -4.03364498E-02 -3.75726696E-06
  1.61597718E-01  1.25196296E-01 -2.31508763E-01 -2.15646203E-05  6.94054574E-02
  3.82325086E-01  1.43507188E-01  3.49809355E-02 -3.10730963E-05  6.86513776E-01
  4.66385983E-01  1.13685023E-01 -1.00984883E-04  6.58292049E-01  1.00000000E+00
Core Hamiltonian Matrix                    R   N=         990
 -8.27156937E+00 -5.74469218E+00 -8.13215646E+00 -7.71031717E-01 -2.22536361E+00
 -2.51589300E+01 -2.98019367E+00 -5.46762242E+00 -5.24067387E+00 -1.19987072E+01
  9.46775783E-01  3.46520192E-01 -1.13602445E-01 -8.24348908E-01 -1.14593271E+01
  1.92971316E+00  1.38422241E+00 -1.07061574E-02 -7.78806507E-02 -2.89714334E-02
 -1.11976533E+01 -3.02582549E+00 -2.21471167E+00 -3.34661321E-06 -2.08141216E-05
 -2.97148191E-06  1.93444870E-05 -1.11596742E+01 -3.63715504E+00 -6.86779304E+00
 -4.49214735E+00 -9.67015455E+00 -8.42128329E-01 -8.00617349E-02 -1.37598724E-05
 -1.07223863E+01  1.14502160E+00  5.46003964E-01 -1.90845151E-02 -6.11263298E-01
 -6.29820885E+00 -3.37452298E-02 -3.00310539E-06 -1.44722096E+00 -9.74080308E+00
  2.32423141E+00  2.38451296E+00 -1.79856926E-03 -5.82029609E-02 -3.37452298E-02
 -5.99863652E+00  1.28089610E-05 -1.36890424E-01 -1.10803521E-01 -8.70809618E+00
 -3.64000532E+00 -3.79251371E+00 -5.62190986E-07 -8.57563402E-06 -3.00310539E-06
  1.28089610E-05 -5.95682170E+00  5.67201251E-06 -1.07140838E-06  1.18490786E-05
 -8.54621184E+00 -2.36055787E-01 -1.50121583E+00 -7.70615700E-01 -2.97927974E+00
  9.46462780E-01  1.93578485E+00  3.02098459E+00 -3.63652039E+00  1.14484721E+00
  2.33196311E+00  3.63484061E+00 -8.27110318E+00 -1.50128007E+00 -3.77856050E+00
 -2.22503142E+00 -5.46693067E+00  3.46499313E-01  1.38898708E+00  2.21162954E+00
 -6.86712084E+00  5.45999233E-01  2.39282824E+00  3.78741304E+00 -5.74439775E+00
 -8.13182686E+00 -2.31501672E-01 -1.48126748E+00 -7.71976193E-01 -2.96722191E+00
  1.73778773E+00 -3.25618119E+00  3.81848948E-03 -3.61524806E+00  2.09178584E+00
 -3.91014827E+00  4.58335745E-03 -2.31478271E-01 -1.48121381E+00 -8.20804427E+00
 -1.48723805E+00 -3.73322386E+00 -2.22605679E+00 -5.45221536E+00  9.33282852E-01
 -2.42709638E+00  2.79666247E-03 -6.83059627E+00  1.55523209E+00 -4.17391102E+00
  4.78643464E-03 -1.48711987E+00 -3.73304452E+00 -5.70282518E+00 -8.06815799E+00
 -1.06943547E-03 -3.69274850E-01 -2.09483200E-05 -2.50509096E-01 -5.96768594E-01
 -8.87593950E-02  1.95751424E-05 -1.34731492E+00 -2.98480002E+00 -4.44205547E-01
  9.78450195E-05 -1.06744228E-03 -3.69075730E-01 -1.03148116E-03 -3.65481222E-01
 -2.76832522E+01 -1.05294595E-01 -1.47501226E+00 -2.32445443E-01 -1.92659839E+00
 -2.84580769E+00 -4.15534115E-01  8.83142995E-05 -4.14586807E+00 -7.21614189E+00
 -1.05270243E+00  2.18813993E-04 -1.05192521E-01 -1.47440372E+00 -1.02981243E-01
 -1.46077986E+00 -5.79364905E+00 -1.45234445E+01  1.84470575E-01  1.20433982E+00
  5.51670566E-01  2.76399604E+00  3.53320094E+00  6.55966362E-01 -1.39684135E-04
  2.94709943E+00  2.55980754E+00  7.39322644E-01 -1.58421931E-04  1.84289436E-01
  1.20383167E+00  2.02049864E-01  1.33773298E+00 -5.81837662E-02 -4.15706048E-01
 -1.39348802E+01  7.75162188E-02  5.31961181E-01  8.21905957E-02  4.19656813E-01
  6.79604006E-01 -8.46969370E-01 -2.05606711E-05  4.65278386E-01  8.00437716E-01
 -2.43866124E+00 -2.33969779E-05  7.76275026E-02  5.33030014E-01 -6.60737737E-02
 -4.62181604E-01 -1.06980179E-02 -7.19699310E-02 -9.47094489E-02 -1.41289722E+01
 -8.40789033E-02 -5.55519928E-01 -1.82780338E-05 -9.70353898E-05 -1.56695349E-04
 -2.23128002E-05 -9.31850230E-01 -1.24179850E-04 -2.20302487E-04 -3.05913142E-05
 -2.41472969E+00  8.38792946E-02  5.54499961E-01  9.88951858E-05  6.54722175E-04
 -1.33849460E-05 -9.63631815E-05 -1.09233779E-05  1.07338217E-07 -1.33239122E+01
 -7.72375174E-01 -2.92763757E+00 -1.23007832E+00 -3.77791671E+00 -3.06259229E+00
 -4.34807071E-01  8.37896183E-05 -6.20098197E+00 -7.55957580E+00 -1.05448458E+00
  2.06698186E-04 -7.72002760E-01 -2.92683140E+00 -7.61278068E-01 -2.89692808E+00
 -4.95728163E+00 -1.17128362E+01 -3.93548062E-01 -5.00849040E-02 -9.50608665E-05
 -1.30589291E+01  1.65915099E+00  3.68026055E+00  2.71685687E+00  6.26706432E+00
  2.82580475E+00  7.19223985E-01 -1.36629839E-04  6.49562571E+00  1.86914791E+00
  9.88270578E-01 -1.95000882E-04  1.65835047E+00  3.67925264E+00  1.83358890E+00
  4.06369465E+00 -9.77451156E-03 -2.80779635E-01 -7.65408337E+00 -7.72338425E-02
 -9.45156138E-06 -4.05177705E-01 -1.14867048E+01  6.99983937E-01  1.55104825E+00
  4.04720983E-01  9.48990224E-01  7.67659766E-01 -2.11599877E+00 -1.66746999E-05
  1.03769388E+00  1.15098121E+00 -4.99676288E+00 -2.42045826E-05  7.01352005E-01
  1.55429361E+00 -6.06089212E-01 -1.26476005E+00 -1.79719914E-03 -3.25796410E-02
 -7.72338425E-02 -7.81311464E+00  1.60578310E-06  6.30096917E-02 -8.97053895E-02
 -1.15719553E+01 -7.63737634E-01 -1.58667131E+00 -8.99977384E-05 -2.19542943E-04
 -1.76344451E-04 -2.09879670E-05 -2.19957176E+00 -2.57136969E-04 -2.93317247E-04
 -3.34697980E-05 -4.87070268E+00  7.62319319E-01  1.58399606E+00  9.06762077E-04
  1.86891837E-03 -2.24858800E-06 -6.84633040E-05 -9.45156138E-06  1.60578310E-06
 -7.03238309E+00 -1.31685312E-04 -8.26052574E-06  1.15354383E-05 -9.94731256E+00
 -8.97284815E-09 -1.58021973E-02  0.00000000E+00 -2.17583507E-04 -7.66130961E-04
 -4.61944826E-04  1.89607294E-09 -1.29588313E-01 -4.13547592E-01 -2.49419856E-01
  1.01979850E-06 -8.87670587E-09 -1.57554325E-02 -3.32957139E-06 -8.00357556E-02
 -1.43128279E-04 -7.84588607E-01 -8.32387071E-01 -1.40543569E+00 -5.86757104E-05
 -1.88252114E+00 -1.77343663E+00 -2.99439662E+00 -1.25006929E-04 -3.85562938E+01
 -1.83665207E-05 -7.16451374E-02 -8.57082186E-07 -1.13294998E-02 -2.75045656E-02
 -1.57981158E-02  1.12741360E-07 -4.48807230E-01 -1.24080001E+00 -7.28918736E-01
  3.95525414E-06 -1.82406613E-05 -7.14661204E-02 -7.98053131E-04 -2.80742211E-01
 -2.18057014E-01 -2.80979399E+00 -2.26384264E+00 -3.79630738E+00 -1.61590296E-04
 -4.49215082E+00 -3.59586768E+00 -6.04000039E+00 -2.55775502E-04 -8.65515939E+00
 -1.54351914E+01  3.98919485E-05  6.16002846E-02  3.23774900E-06  1.95451451E-02
  4.34889011E-02  2.73879920E-02 -1.93561020E-07  3.54862921E-01  7.85807228E-01
  5.76913146E-01 -3.38145844E-06  3.96183777E-05  6.14466214E-02  1.89587772E-03
  2.63326548E-01  2.62942262E-01  1.61987237E+00  1.57361071E-01  2.43540989E+00
  1.03610257E-04  1.21635841E+00 -1.12106230E+00  1.60482847E+00  6.79554218E-05
  6.12904101E-02  4.18156365E-01 -1.39766737E+01  3.16480370E-05  5.21795395E-02
  1.96013823E-06  1.28914671E-02  3.15587233E-02  1.35753335E-02 -1.55679185E-07
  2.48175313E-01  6.87698324E-01  1.92573646E-01 -2.76884529E-06  3.14641897E-05
  5.20981860E-02  2.67507056E-04  5.55249982E-02  4.44813122E-01  2.76984605E+00
  2.47969140E+00  2.85778872E+00  1.77187129E-04  2.11217212E+00  1.66064945E+00
  7.02283181E-01  1.18449041E-04  1.21922529E-01  8.31827445E-01 -1.21991504E-01
 -1.41426526E+01 -1.40635605E-05 -2.07876507E-02 -7.65235539E-12  1.38616961E-08
  4.17114663E-08 -3.45744025E-09 -4.10786453E-03  6.74573901E-07  1.64993734E-06
  5.39292484E-07 -2.00164988E-01  1.39486751E-05  2.07091064E-02  7.88793351E-07
  1.05838582E-04  1.84602696E-05  1.11559523E-04  1.00213757E-04  1.68330830E-04
 -1.28558253E+00  8.14705677E-05  6.38739074E-05  1.07622768E-04 -2.06355491E+00