Jobname.Temp
FOPT      R                             STO-3G              
Number of atoms                            I                7
Charge                                     I                0
Multiplicity                               I                1
Number of electrons                        I               22
Number of alpha electrons                  I               11
Number of beta electrons                   I               11
Atomic numbers                             I   N=           7
           6           6           6           1           1           1
           1
Current cartesian coordinates              R   N=          21
  2.46654616E+00  6.33230721E-04  8.80339097E-04 -2.98834594E-06  5.17701191E-04
  4.27561980E-04 -2.46656328E+00 -1.41199567E-04 -3.25827117E-04  3.49136907E+00
  1.41145590E+00 -1.07556209E+00  3.49091053E+00 -1.41578789E+00  1.07045734E+00
 -3.49001383E+00 -1.41442707E+00 -1.07344171E+00 -3.49214506E+00  1.41270067E+00
  1.07265401E+00
Nuclear charges                            R   N=           7
  6.00000000E+00  6.00000000E+00  6.00000000E+00  1.00000000E+00  1.00000000E+00
  1.00000000E+00  1.00000000E+00
Number of basis functions                  I               19
Number of contracted shells                I               10
Number of primitive shells                 I               30
Highest angular momentum                   I                1
Largest degree of contraction              I                3
Shell types                                I   N=          10
           0          -1           0          -1           0          -1
           0           0           0           0
Number of primitives per shell             I   N=          10
           3           3           3           3           3           3
           3           3           3           3
Shell to atom map                          I   N=          10
           1           1           2           2           3           3
           4           5           6           7
Primitive exponents                        R   N=          30
  7.16168370E+01  1.30450960E+01  3.53051220E+00  2.94124940E+00  6.83483100E-01
  2.22289900E-01  7.16168370E+01  1.30450960E+01  3.53051220E+00  2.94124940E+00
  6.83483100E-01  2.22289900E-01  7.16168370E+01  1.30450960E+01  3.53051220E+00
  2.94124940E+00  6.83483100E-01  2.22289900E-01  3.42525091E+00  6.23913730E-01
  1.68855400E-01  3.42525091E+00  6.23913730E-01  1.68855400E-01  3.42525091E+00
  6.23913730E-01  1.68855400E-01  3.42525091E+00  6.23913730E-01  1.68855400E-01
Contraction coefficients                   R   N=          30
  1.54328970E-01  5.35328140E-01  4.44634540E-01 -9.99672301E-02  3.99512830E-01
  7.00115471E-01  1.54328970E-01  5.35328140E-01  4.44634540E-01 -9.99672301E-02
  3.99512830E-01  7.00115471E-01  1.54328970E-01  5.35328140E-01  4.44634540E-01
 -9.99672301E-02  3.99512830E-01  7.00115471E-01  1.54328971E-01  5.35328142E-01
  4.44634542E-01  1.54328971E-01  5.35328142E-01  4.44634542E-01  1.54328971E-01
  5.35328142E-01  4.44634542E-01  1.54328971E-01  5.35328142E-01  4.44634542E-01
P(S=P) Contraction coefficients            R   N=          30
  0.00000000E+00  0.00000000E+00  0.00000000E+00  1.55916272E-01  6.07683728E-01
  3.91957395E-01  0.00000000E+00  0.00000000E+00  0.00000000E+00  1.55916272E-01
  6.07683728E-01  3.91957395E-01  0.00000000E+00  0.00000000E+00  0.00000000E+00
  1.55916272E-01  6.07683728E-01  3.91957395E-01  0.00000000E+00  0.00000000E+00
  0.00000000E+00  0.00000000E+00  0.00000000E+00  0.00000000E+00  0.00000000E+00
  0.00000000E+00  0.00000000E+00  0.00000000E+00  0.00000000E+00  0.00000000E+00
Coordinates of each shell                  R   N=          30
  2.46654616E+00  6.33230721E-04  8.80339097E-04  2.46654616E+00  6.33230721E-04
  8.80339097E-04 -2.98834594E-06  5.17701191E-04  4.27561980E-04 -2.98834594E-06
  5.17701191E-04  4.27561980E-04 -2.46656328E+00 -1.41199567E-04 -3.25827117E-04
 -2.46656328E+00 -1.41199567E-04 -3.25827117E-04  3.49136907E+00  1.41145590E+00
 -1.07556209E+00  3.49091053E+00 -1.41578789E+00  1.07045734E+00 -3.49001383E+00
 -1.41442707E+00 -1.07344171E+00 -3.49214506E+00  1.41270067E+00  1.07265401E+00
Current cartesian coordinates              R   N=          21
  2.46654616E+00  6.33230721E-04  8.80339097E-04 -2.98834594E-06  5.17701191E-04
  4.27561980E-04 -2.46656328E+00 -1.41199567E-04 -3.25827117E-04  3.49136907E+00
  1.41145590E+00 -1.07556209E+00  3.49091053E+00 -1.41578789E+00  1.07045734E+00
 -3.49001383E+00 -1.41442707E+00 -1.07344171E+00 -3.49214506E+00  1.41270067E+00
  1.07265401E+00
Overlap Matrix                             R   N=         190
  1.00000000E+00  2.48362390E-01  1.00000000E+00  4.43082628E-17 -4.60077692E-16
  1.00000000E+00  2.60078845E-20 -7.36806593E-20  2.85536925E-35  1.00000000E+00
  5.64593891E-23  1.33727315E-20  6.95665405E-36  0.00000000E+00  1.00000000E+00
  4.30028521E-06  4.69435528E-02 -7.79556514E-02 -3.65132791E-06 -1.43100879E-05
  1.00000000E+00  4.69435528E-02  4.13774754E-01 -4.21346819E-01 -1.97352645E-05
 -7.73453868E-05  2.48362390E-01  1.00000000E+00  7.79556514E-02  4.21346819E-01
 -3.26271142E-01 -2.70995948E-05 -1.06207274E-04  1.11778497E-22  6.27723972E-23
  1.00000000E+00  3.65132791E-06  1.97352645E-05 -2.70995948E-05  2.52303724E-01
 -4.97459230E-09 -2.28950201E-22 -7.36806593E-20  0.00000000E+00  1.00000000E+00
  1.43100879E-05  7.73453868E-05 -1.06207274E-04 -4.97459230E-09  2.52303706E-01
  9.72396407E-22 -5.61618276E-20 -1.37560201E-41  3.48555816E-39  1.00000000E+00
  4.35873482E-20  8.79466679E-04 -2.18461953E-03 -3.42955200E-07 -5.34148756E-07
  4.29986078E-06  4.69428965E-02 -7.79545348E-02 -2.08242637E-05 -2.38105254E-05
  1.00000000E+00  8.79466679E-04  4.00259689E-02 -6.17166230E-02 -9.68866042E-06
 -1.50899765E-05  4.69428965E-02  4.13771547E-01 -4.21344749E-01 -1.12555276E-04
 -1.28696039E-04  2.48362390E-01  1.00000000E+00  2.18461953E-03  6.17166230E-02
 -8.76530260E-02 -1.62782957E-05 -2.53532572E-05  7.79545348E-02  4.21344749E-01
 -3.26271530E-01 -1.54556095E-04 -1.76719901E-04  1.10436235E-16 -1.99859001E-17
  1.00000000E+00  3.42955200E-07  9.68866042E-06 -1.62782957E-05  1.60394733E-02
 -3.98011244E-09  2.08242637E-05  1.12555276E-04 -1.54556095E-04  2.52301031E-01
 -4.72077966E-08 -7.60848361E-21  1.90944153E-20  8.95127977E-36  1.00000000E+00
  5.34148756E-07  1.50899765E-05 -2.53532572E-05 -3.98011244E-09  1.60394697E-02
  2.38105254E-05  1.28696039E-04 -1.76719901E-04 -4.72077966E-08  2.52301018E-01
 -1.64638431E-20  3.01539639E-20  3.47832703E-36  8.71389541E-40  1.00000000E+00
  6.30929600E-02  4.93972559E-01  2.34638369E-01  3.23014960E-01 -2.46456919E-01
  6.67471191E-03  1.13049979E-01  1.27464264E-01  5.15110381E-02 -3.92826163E-02
  1.48700436E-04  8.73211902E-03  1.35811459E-02  3.21774485E-03 -2.45100811E-03
  1.00000000E+00  6.30900075E-02  4.93960996E-01  2.34525636E-01 -3.24286041E-01
  2.44876954E-01  6.67561618E-03  1.13061081E-01  1.27461746E-01 -5.17127633E-02
  3.90693907E-02  1.48786912E-04  8.73533890E-03  1.35853751E-02 -3.22822929E-03
  2.44180528E-03  1.45098554E-01  1.00000000E+00  1.48907010E-04  8.73980962E-03
 -1.35906140E-02 -3.22863169E-03 -2.45119603E-03  6.67774559E-03  1.13087224E-01
 -1.27462271E-01 -5.16766515E-02 -3.92198826E-02  6.30963394E-02  4.93985795E-01
 -2.34333021E-01 -3.23820122E-01 -2.45704579E-01  1.83658967E-03  2.49273552E-03
  1.00000000E+00  1.48629350E-04  8.72947170E-03 -1.35785383E-02  3.21778913E-03
  2.44233495E-03  6.67381810E-03  1.13039005E-01 -1.27478312E-01  5.15507956E-02
  3.91409099E-02  6.30964798E-02  4.93986345E-01 -2.34821363E-01  3.23490006E-01
  2.45673816E-01  2.48044488E-03  1.83033559E-03  1.45104126E-01  1.00000000E+00
Core Hamiltonian Matrix                    R   N=         190
 -2.27081312E+01 -5.50664622E+00 -9.61100279E+00  7.50354259E-02  8.55505336E-01
 -8.94651949E+00  5.32742280E-05  5.52433821E-04  1.12641362E-04 -8.39568880E+00
  7.60655114E-05  7.92558497E-04  1.15400570E-04  9.23215795E-02 -8.34358110E+00
 -1.94728050E-04 -1.09361412E+00  1.81415721E+00  8.60813190E-05  3.33849748E-04
 -2.36480741E+01 -1.05552713E+00 -4.29395395E+00  4.49602258E+00  3.25727382E-04
  9.50671769E-04 -5.74009271E+00 -1.05541100E+01 -1.75094066E+00 -4.31656819E+00
  3.41198119E+00  3.99281359E-04  1.19547586E-03 -3.57777821E-07 -2.69190916E-06
 -1.02452773E+01 -7.99593890E-05 -1.03780053E-04  1.79404238E-04 -2.22723319E+00
  7.79024982E-03  2.60573171E-05  2.93882119E-04 -1.48493218E-04 -9.13490638E+00
 -3.18904794E-04 -6.95624586E-04  9.66445789E-04  7.79027946E-03 -2.22230599E+00
  1.80739024E-05  2.05237926E-04 -2.30049448E-04 -5.00186981E-07 -9.12933304E+00
  0.00000000E+00 -2.00773744E-02  4.96332421E-02  7.79199150E-06  1.21322941E-05
 -1.94710151E-04 -1.05551300E+00  1.75091665E+00  4.68292986E-04  5.34852257E-04
 -2.27081459E+01 -2.00773652E-02 -4.34583325E-01  6.71783176E-01  9.95074312E-05
  1.62789040E-04 -1.09359880E+00 -4.29392060E+00  4.31654708E+00  1.21359287E-03
  1.35255822E-03 -5.50664988E+00 -9.61101329E+00 -4.96332182E-02 -6.71783119E-01
  9.64313998E-01  1.64887018E-04  2.69259391E-04 -1.81413122E+00 -4.49599606E+00
  3.41198044E+00  1.58059908E-03  1.77124480E-03 -7.50343894E-02 -8.55498219E-01
 -8.94651912E+00 -7.77162165E-06 -1.12093648E-04  1.84866889E-04 -1.40757224E-01
  2.27219132E-08 -4.83581127E-04 -1.14736493E-03  1.46349157E-03 -2.22720957E+00
 -7.79069830E-03 -8.41470478E-06 -1.03813260E-04 -1.00069549E-04 -8.39570066E+00
 -1.21059660E-05 -1.66840696E-04  2.75630482E-04  1.88369236E-08 -1.40544003E-01
 -5.53404200E-04 -1.34954763E-03  1.71222113E-03 -7.79067830E-03 -2.22228319E+00
 -2.35766966E-05 -2.62824086E-04 -1.07940819E-04 -9.23328372E-02 -8.34360145E+00
 -1.40448263E+00 -4.11584523E+00 -1.51142108E+00 -2.41305899E+00  1.84133058E+00
 -1.55701571E-01 -1.07232167E+00 -1.19132642E+00 -4.12289660E-01  3.14327629E-01
 -3.39260530E-03 -8.82318825E-02 -1.37479017E-01 -2.63134066E-02  2.00004061E-02
 -6.37790598E+00 -1.40441821E+00 -4.11577995E+00 -1.51058063E+00  2.42285164E+00
 -1.82914091E+00 -1.55722728E-01 -1.07242550E+00 -1.19131232E+00  4.13930253E-01
 -3.12646489E-01 -3.39457122E-03 -8.82616242E-02 -1.37518031E-01  2.63886138E-02
 -1.99383655E-02 -1.14330913E+00 -6.37796903E+00 -3.39730475E-03 -8.83050688E-02
  1.37570574E-01  2.64001242E-02  2.00145960E-02 -1.55772433E-01 -1.07268108E+00
  1.19135513E+00  4.13693583E-01  3.13903102E-01 -1.40456159E+00 -4.11609365E+00
  1.50914344E+00  2.41926223E+00  1.83549930E+00 -1.74169648E-02 -2.23324321E-02
 -6.37827738E+00 -3.39098260E-03 -8.82069541E-02  1.37453513E-01 -2.63055996E-02
 -1.99300768E-02 -1.55680636E-01 -1.07221831E+00  1.19143250E+00 -4.12559507E-01
 -3.13144371E-01 -1.40456037E+00 -4.11593021E+00  1.51278563E+00 -2.41675962E+00
 -1.83533750E+00 -2.22374616E-02 -1.73670451E-02 -1.14337589E+00 -6.37784517E+00
Number of independent functions            I               19
Alpha MO coefficients                      R   N=         361
 -7.25272223E-02  4.30183463E-03 -3.73311519E-03  7.12472967E-07  4.76346907E-07
 -9.87427596E-01 -3.19831271E-02 -4.54482551E-08  1.80804401E-07 -1.43637706E-07
 -7.25144232E-02  4.30209624E-03  3.73313772E-03  1.22584609E-06  1.16252042E-06
  5.89884090E-04  5.89990118E-04  5.90169101E-04  5.89665320E-04  7.12451742E-01
  2.71763378E-02 -2.15096871E-03 -8.44997506E-06 -1.10875520E-05 -1.02010819E-01
 -1.52170121E-02 -1.43576695E-04  1.50783233E-06  1.29567370E-06  6.82817691E-01
  2.60867149E-02  2.08369364E-03 -1.01683598E-06  1.02640153E-06 -4.87167948E-03
 -4.87174155E-03 -4.66976486E-03 -4.66920602E-03  6.86741609E-01  2.52406339E-02
 -1.54566444E-03 -7.94189783E-06 -1.05217655E-05  2.14571319E-03  3.21080542E-04
 -6.79861680E-03 -5.18452662E-07 -6.25540675E-07 -7.16214534E-01 -2.63660225E-02
 -1.63491623E-03  7.56084035E-07 -1.37380667E-06 -4.69106823E-03 -4.69113830E-03
  4.89303448E-03  4.89270148E-03  1.35286970E-01 -3.63379026E-01  1.09541663E-01
  9.47401059E-05  1.32469813E-04  1.85902174E-01 -4.65302970E-01  2.34581289E-06
  4.18973386E-05  3.01407742E-05  1.35292796E-01 -3.63392590E-01 -1.09538708E-01
 -6.29882537E-06 -3.49004321E-05 -8.02901252E-02 -8.02946891E-02 -8.03085198E-02
 -8.02930889E-02  1.62217670E-01 -4.25292410E-01  2.89787750E-02  1.61784175E-04
  2.14744997E-04  6.51084798E-06 -1.74362398E-05 -3.24067455E-01 -1.14482911E-05
 -2.66702142E-05 -1.62215441E-01  4.25283729E-01  2.89643325E-02 -1.07701745E-05
  3.10634525E-05 -1.36571277E-01 -1.36570374E-01  1.36578804E-01  1.36575355E-01
 -7.00886508E-02  2.29712171E-01  3.23658295E-01 -3.80561894E-04 -4.40157210E-04
  1.39074091E-01 -4.20115740E-01  1.24718919E-05 -1.15010681E-04 -1.18295349E-04
 -7.00843510E-02  2.29695384E-01 -3.23667779E-01 -1.90023268E-04 -1.16273015E-04
  2.17131642E-01  2.17124750E-01  2.17145169E-01  2.17106888E-01  4.44792596E-05
 -1.24001107E-04  2.59503390E-04 -3.40956728E-01  1.74869995E-01 -1.27103420E-05
  2.84083663E-05 -4.09495294E-04 -2.18495446E-01 -1.47351584E-04  2.53144823E-05
 -1.35702596E-04  6.30511681E-04 -3.41344208E-01 -1.75327145E-01 -2.61193274E-01
  2.61523957E-01  2.61556690E-01 -2.61984442E-01  3.17707592E-05  5.05849171E-05
  1.50412401E-03  2.53875548E-01 -2.94491915E-01 -1.71118636E-05  4.61931111E-05
 -1.76273209E-03  1.78725511E-04 -1.97223824E-01  2.77059218E-05 -2.74318150E-04
  1.80927453E-03 -2.53338558E-01 -2.94237721E-01  2.71177370E-01 -2.69711034E-01
  2.69254853E-01 -2.70828463E-01  4.24074095E-03 -6.04848007E-02 -4.00166620E-01
  1.09650221E-03 -5.19070907E-04  1.75269672E-07 -2.41926342E-06  4.65994348E-01
 -8.81175143E-05 -5.39327274E-04 -4.23978826E-03  6.04761150E-02 -4.00162120E-01
 -1.59255735E-03 -1.45578628E-03 -1.94295501E-01 -1.95934867E-01  1.96484520E-01
  1.93730804E-01 -1.99119773E-04  8.74881715E-04  6.69264850E-04  3.59754026E-01
  2.96096210E-01  6.04735324E-05 -2.11102763E-04 -4.08492052E-04  8.40145225E-06
  5.66831720E-01  3.77346014E-07 -2.21804636E-05  1.81906806E-04 -3.59749674E-01
  2.96064466E-01  1.28434801E-01 -1.28416394E-01  1.28405414E-01 -1.28445437E-01
  2.08624987E-04 -9.40923782E-04 -6.28145206E-04 -2.18081617E-01 -4.43499184E-01
 -6.82957175E-05  2.38460514E-04  2.85778863E-04 -5.55849481E-01  1.04114520E-06
  3.90965081E-05 -1.60584989E-04 -8.31761384E-05 -2.18121310E-01  4.43505550E-01
  1.48655764E-01 -1.48539171E-01 -1.48563968E-01  1.48599567E-01  3.09492679E-04
 -1.67965393E-03 -7.88513004E-04 -2.45933367E-01 -4.71134574E-01 -9.04268815E-05
  4.11938351E-04  3.54483627E-05  7.71852253E-01 -3.13081012E-05  6.58677917E-05
 -3.22369444E-04 -1.78189831E-04 -2.46014931E-01  4.71163751E-01 -2.19978368E-01
  2.21626582E-01  2.20903760E-01 -2.20627617E-01 -3.63528241E-04  2.04438663E-03
  1.01705591E-03  4.25686452E-01  3.78818607E-01  8.36420689E-05 -3.89930473E-04
 -1.02177298E-05 -4.06934349E-05 -8.02769420E-01 -3.33609313E-06 -1.73936576E-05
  3.17956018E-04 -4.25657403E-01  3.78750875E-01 -1.95525601E-01  1.93350727E-01
 -1.94403326E-01  1.94508248E-01 -1.71875205E-01  1.07915564E+00  4.44477732E-02
 -1.46478715E-03 -1.77966971E-03  1.15661598E-01 -7.54708355E-01 -5.29463765E-05
  3.65623070E-04  4.59466333E-04 -1.71764376E-01  1.07846656E+00 -4.40819830E-02
  8.25858458E-04  8.00829869E-04 -5.74303085E-01 -5.74388077E-01 -5.72789945E-01
 -5.74877242E-01  1.33841849E-01 -8.59239554E-01 -4.50303518E-01  1.81843705E-03
  1.59263059E-03  4.89087950E-05 -3.27242890E-04  1.02635501E-01 -2.44307792E-04
 -4.53603734E-04 -1.33987282E-01  8.60183079E-01 -4.50321388E-01 -1.43304187E-03
 -7.32914495E-04  6.37414868E-01  6.38084850E-01 -6.39338659E-01 -6.37143191E-01
 -3.66163977E-02  2.44084527E-01 -8.99151569E-01  1.03196986E-03  3.26743472E-04
  1.81283985E-01 -1.37282063E+00  1.91110992E-05 -2.51909848E-04 -7.14642669E-05
 -3.66156096E-02  2.44070050E-01  8.99181217E-01  4.59735996E-04  2.60455089E-04
  2.82619238E-01  2.83366485E-01  2.83016071E-01  2.83004777E-01  2.22185445E-04
 -1.49193304E-03 -6.55796859E-04 -5.80424597E-01  6.09562631E-01 -2.89211136E-05
  1.98065383E-04  2.86227124E-04  3.00269322E-04 -3.79024104E-01 -2.54345468E-05
  1.85133432E-04 -5.86458316E-04  5.79486520E-01  6.09081708E-01  5.94323925E-01
 -5.92186422E-01  5.92413173E-01 -5.92701712E-01 -1.70379710E-04  1.14980000E-03
 -3.34865209E-04 -7.46677473E-01  4.19246138E-01  1.35673900E-04 -1.04915057E-03
 -1.93065392E-04  4.46715589E-01  2.32632870E-04 -4.68428549E-05  3.09524426E-04
  9.74130921E-04 -7.47415874E-01 -4.20044826E-01  5.82711658E-01 -5.83771370E-01
 -5.83944861E-01  5.84082881E-01  9.66861739E-02 -8.74462288E-01  8.46143404E-01
 -1.94889172E-05  8.72284026E-05 -2.38316588E-06  2.74596295E-05  1.58279368E+00
  2.87678800E-04  4.32985741E-04 -9.66870312E-02  8.74457872E-01  8.46109801E-01
  1.85494222E-04  2.09490551E-04 -7.04599274E-04 -6.70500258E-04  5.67521990E-04
  7.70276903E-04
Alpha Orbital Energies                     R   N=          19
 -1.10289209E+01 -1.10216367E+01 -1.10216142E+01 -1.01017659E+00 -8.96010042E-01
 -6.55110821E-01 -5.72052701E-01 -5.61313557E-01 -5.54905618E-01 -3.38254248E-01
 -2.97049680E-01  2.88885516E-01  3.43001518E-01  6.55021096E-01  6.86575084E-01
  7.81698756E-01  8.15036703E-01  8.49224069E-01  1.29497837E+00
Total SCF Density                          R   N=         190
  2.06801869E+00 -1.96247719E-01  7.41479721E-01 -1.43694664E-02  9.26206888E-02
  5.55502570E-01 -1.30745196E-04  6.35322172E-04  2.48554036E-04  7.15376436E-01
 -1.73631482E-04  8.60045170E-04  3.30404659E-04  1.37706143E-01  8.03340045E-01
  3.16296024E-02 -8.51489455E-02  1.38557951E-01  2.93560078E-06  3.01262239E-05
  2.07865060E+00 -8.36161357E-02  1.44079537E-01 -3.73584249E-01 -2.00253686E-05
 -1.06947013E-04 -2.23588134E-01  7.88517547E-01 -1.10729954E-01  2.18927396E-01
 -3.91709121E-01 -1.17177294E-04 -2.23203516E-04  4.73697879E-07 -3.48663419E-06
  6.44440427E-01 -2.26950381E-04  1.03741081E-03  5.90040965E-04  3.91532784E-01
  4.16520895E-01  6.43939846E-05 -2.19908818E-04 -2.14091852E-04  7.13417920E-01
 -2.25760930E-04  9.83615179E-04  5.25467165E-04  3.07798306E-01  4.51783294E-01
  5.36289028E-05 -1.86228939E-04 -2.53021406E-04  2.38582137E-06  7.20391528E-01
 -6.47421729E-03  8.30087570E-03 -2.19166607E-02 -3.04972124E-06 -9.78660494E-06
  3.16288128E-02 -8.36138404E-02  1.10727315E-01 -1.98211695E-05  3.01410337E-05
  2.06801877E+00  8.30098966E-03  6.94661229E-04  4.52561724E-02  3.38688068E-05
  6.47833756E-05 -8.51474192E-02  1.44076742E-01 -2.18922133E-01  1.34151337E-04
 -8.09693363E-05 -1.96244454E-01  7.41464132E-01  2.19177294E-02 -4.52585462E-02
  8.84024559E-02  1.32750563E-05  2.01475791E-05 -1.38558921E-01  3.73590982E-01
 -3.91713415E-01 -4.72707816E-05 -7.55725723E-06  1.43709584E-02 -9.26173611E-02
  5.55505754E-01  1.31353844E-05 -4.09000384E-05  2.78298570E-06 -5.95753652E-02
  1.02646251E-02 -5.37771942E-05  1.70548962E-04 -1.35345129E-04  3.91553267E-01
 -3.07804351E-01 -9.36703817E-06  3.30626263E-05 -4.34283341E-05  7.15391200E-01
  3.68484866E-05 -1.81227787E-04 -5.30226062E-05 -1.02647351E-02 -1.06077602E-01
 -5.80725630E-05  1.79446318E-04 -1.84369448E-04 -4.16528215E-01  4.51753025E-01
  2.20433511E-05 -1.24132841E-04 -2.03961985E-06 -1.37712202E-01  8.03337841E-01
 -1.11583273E-01  2.97317031E-01  2.71244920E-01  3.42722909E-01 -3.06937282E-01
  3.03421560E-02 -1.07582267E-01 -9.32564502E-02 -5.10415999E-02  3.88744914E-02
 -6.21027052E-03  1.83053301E-02  2.52940642E-02 -1.15804191E-01  1.40428930E-01
  5.80788647E-01 -1.11606938E-01  2.97440211E-01  2.71225277E-01 -3.43546274E-01
  3.05960160E-01  3.03530967E-02 -1.07625792E-01 -9.32661433E-02  5.07296654E-02
 -3.91090553E-02 -6.22387009E-03  1.83696916E-02  2.52695235E-02  1.15857177E-01
 -1.40264022E-01 -1.39327400E-01  5.80743800E-01 -6.28256398E-03  1.86510261E-02
 -2.50651010E-02  1.15836885E-01  1.40349037E-01  3.03695161E-02 -1.07700154E-01
  9.31864309E-02  5.08644692E-02  3.90087306E-02 -1.11598842E-01  2.97382983E-01
 -2.70966986E-01 -3.43274935E-01 -3.06519678E-01 -8.25155814E-03 -4.38832055E-03
  5.80753593E-01 -6.15169668E-03  1.80248376E-02 -2.54963590E-02 -1.15805340E-01
 -1.40339694E-01  3.03256211E-02 -1.07511796E-01  9.33347459E-02 -5.09060906E-02
 -3.89812066E-02 -1.11596910E-01  2.97372578E-01 -2.71499316E-01  3.42965794E-01
  3.06394593E-01 -4.25258520E-03 -8.14475302E-03 -1.39317732E-01  5.80753772E-01
Pure Switching                             I                1
Dipole_Data                                R   N=           3
  3.08839683E-05 -1.93685859E-03 -1.82495937E-03
Quadrupole_Data                            R   N=           6
 -1.61099224E+01 -3.32943577E-03 -1.70625734E+01 -4.63361737E-03  1.72515712E-05
 -1.78412752E+01
Octapole_Data                              R   N=          10
  3.49514595E-04 -6.41989554E-03  1.05898397E-04 -5.71731245E-03 -6.93260248E-03
 -2.06839201E+00 -5.83157760E-04 -6.05513269E-05  7.89640173E-04 -3.37388667E-03
Hexadecapole_Data                          R   N=          15
 -1.70500552E+02 -1.56915403E-02 -2.99242716E+01 -7.17140596E-03 -2.37742888E+01
 -2.13341423E-02 -5.27640931E-05  9.92294311E-04 -1.16526895E-05 -3.18370594E+01
  3.01471565E-03 -6.90679802E+00 -7.00641772E-03  4.40169729E-05 -2.06544408E+01
Cartesian Forces                           R   N=          21
 -3.38826913E-02 -2.37479857E-04 -3.14296369E-04 -6.16177687E-06  3.07364530E-05
  3.04982348E-05  3.39273611E-02  1.51249849E-05  6.96070684E-05  4.32205459E-03
 -9.73717815E-03 -4.45610025E-03  4.35229629E-03  9.91218204E-03  4.69951537E-03
 -4.36582467E-03  9.81517529E-03 -4.60587879E-03 -4.34703419E-03 -9.79856076E-03
  4.57665474E-03
Current cartesian coordinates              R   N=          21
  2.41618892E+00  5.09012946E-02  5.17596743E-02  2.49620118E-05  5.11811181E-02
 -2.85772553E-05 -2.41613069E+00  5.07453273E-02 -5.21655210E-02  3.49483544E+00
  1.26682564E+00 -1.18933651E+00  3.44504899E+00 -1.34677465E+00  1.13360157E+00
 -3.44443987E+00 -1.34578622E+00 -1.13599900E+00 -3.49542717E+00  1.26785882E+00
  1.18725799E+00
Overlap Matrix                             R   N=         190
  1.00000000E+00  2.48362390E-01  1.00000000E+00 -7.53339220E-17 -3.47888083E-17
  1.00000000E+00  5.68890181E-19  8.55854819E-19  0.00000000E+00  1.00000000E+00
 -3.80209539E-18 -7.13002663E-18  0.00000000E+00  0.00000000E+00  1.00000000E+00
  6.61459783E-06  4.99147337E-02 -8.29866886E-02  9.61094721E-06 -1.77874333E-03
  1.00000000E+00  4.99147337E-02  4.28022440E-01 -4.30135974E-01  4.98153885E-05
 -9.21956888E-03  2.48362390E-01  1.00000000E+00  8.29866886E-02  4.30135974E-01
 -3.23470619E-01  6.80610061E-05 -1.25963714E-02 -3.06942820E-22 -1.88462274E-21
  1.00000000E+00 -9.61094721E-06 -4.98153885E-05  6.80610061E-05  2.64208964E-01
  1.45882505E-06  1.00147456E-18 -7.18871393E-18  1.73390364E-38  1.00000000E+00
  1.77874333E-03  9.21956888E-03 -1.25963714E-02  1.45882505E-06  2.63938980E-01
 -1.71600837E-21  2.38680192E-21 -6.80773079E-42 -3.14252009E-38  1.00000000E+00
  2.43026083E-19  1.08106007E-03 -2.63120487E-03 -8.49244282E-08 -5.65874161E-05
  6.61464172E-06  4.99147812E-02 -8.29865113E-02 -1.49678927E-05 -1.79072199E-03
  1.00000000E+00  1.08106007E-03  4.50497258E-02 -6.85870445E-02 -2.21370658E-06
 -1.47505185E-03  4.99147812E-02  4.28022664E-01 -4.30134771E-01 -7.75814165E-05
 -9.28165050E-03  2.48362390E-01  1.00000000E+00  2.63120487E-03  6.85870445E-02
 -9.58990745E-02 -3.68466263E-06 -2.45518918E-03  8.29865113E-02  4.30134771E-01
 -3.23466912E-01 -1.05996411E-04 -1.26811508E-02 -1.93977310E-17 -2.37418876E-17
  1.00000000E+00  8.49244282E-08  2.21370658E-06 -3.68466263E-06  1.82624508E-02
 -7.92433684E-08  1.49678927E-05  7.75814165E-05 -1.05996411E-04  2.64209141E-01
 -2.28724045E-06 -1.74598271E-18 -4.71556219E-18  0.00000000E+00  1.00000000E+00
  5.65874161E-05  1.47505185E-03 -2.45518918E-03 -7.92433684E-08  1.82096489E-02
  1.79072199E-03  9.28165050E-03 -1.26811508E-02 -2.28724045E-06  2.63935521E-01
 -1.89559933E-18 -3.70966993E-19  8.81323187E-34  0.00000000E+00  1.00000000E+00
  6.34201903E-02  4.95251538E-01  2.47864690E-01  2.79410079E-01 -2.85194374E-01
  6.93704847E-03  1.16255695E-01  1.31713403E-01  4.58155537E-02 -4.48229728E-02
  1.73126996E-04  9.61779148E-03  1.49185334E-02  3.06923340E-03 -2.87007621E-03
  1.00000000E+00  6.34170692E-02  4.95239363E-01  2.36415940E-01 -3.21164052E-01
  2.48590332E-01  6.93515529E-03  1.16232668E-01  1.29807753E-01 -5.26746678E-02
  4.27149362E-02  1.73098723E-04  9.61679210E-03  1.47912571E-02 -3.52677760E-03
  2.99239859E-03  1.51605494E-01  1.00000000E+00  1.73213084E-04  9.62083412E-03
 -1.47964248E-02 -3.52623968E-03 -2.99875364E-03  6.93665748E-03  1.16250939E-01
 -1.29809915E-01 -5.26468466E-02 -4.28107795E-02  6.34174112E-02  4.95240698E-01
 -2.36290250E-01 -3.20902308E-01 -2.49048915E-01  2.14765002E-03  2.65894589E-03
  1.00000000E+00  1.72957478E-04  9.61179869E-03 -1.49103664E-02  3.06942846E-03
  2.86397083E-03  6.93452000E-03  1.16224940E-01 -1.31697902E-01  4.58406795E-02
  4.47333118E-02  6.34173795E-02  4.95240574E-01 -2.48006290E-01  2.79674594E-01
  2.84801105E-01  2.24049804E-03  2.14238799E-03  1.51572296E-01  1.00000000E+00
Core Hamiltonian Matrix                    R   N=         190
 -2.27893089E+01 -5.52680772E+00 -9.68782822E+00  7.81979070E-02  8.86364629E-01
 -9.04723832E+00  1.57420449E-03  1.60952653E-02  3.78363651E-03 -8.44564902E+00
  3.33344193E-03  3.57683516E-02 -6.53609201E-03  9.26430435E-02 -8.42356664E+00
 -2.91422109E-04 -1.16812427E+00  1.93982125E+00 -2.00610090E-04  4.15828309E-02
 -2.37561619E+01 -1.12650735E+00 -4.48580268E+00  4.64950576E+00  2.91151886E-03
  1.02581510E-01 -5.76693765E+00 -1.06541584E+01 -1.87071198E+00 -4.45303450E+00
  3.43363577E+00  3.51369524E-03  1.28254039E-01 -4.67751726E-07 -5.38523386E-06
 -1.03795771E+01  2.86219482E-04  3.22312666E-03 -2.75247959E-03 -2.35268990E+00
  8.10312879E-03  4.65624988E-04  5.41257355E-03 -2.49678163E-05 -9.21619525E+00
 -4.00257900E-02 -9.36159559E-02  1.23388986E-01  8.23800192E-03 -2.34776371E+00
  1.64863150E-05  1.84674764E-04 -2.26692944E-02 -2.03112188E-06 -9.21419993E+00
  0.00000000E+00 -2.47561023E-02  5.99662394E-02  2.99137583E-06  1.28856853E-03
 -2.91423879E-04 -1.12650824E+00  1.87070764E+00  4.06175256E-04  4.02973568E-02
 -2.27893064E+01 -2.47561076E-02 -4.93035010E-01  7.53689560E-01  2.14310131E-04
  1.62421618E-02 -1.16812536E+00 -4.48580339E+00  4.45301774E+00  3.49191246E-03
  9.43554695E-02 -5.52680710E+00 -9.68782693E+00 -5.99662520E-02 -7.53689456E-01
  1.06756915E+00  3.40980949E-04  2.65745196E-02 -1.93981710E+00 -4.64949346E+00
  3.43359659E+00  3.12277452E-03  1.24321257E-01 -7.81974287E-02 -8.86358895E-01
 -9.04724167E+00 -8.67722380E-07  1.65304285E-04 -2.60215696E-04 -1.61424501E-01
 -5.65236694E-06 -3.25868238E-04  2.58071955E-03 -3.09305802E-03 -2.35268987E+00
 -8.23214081E-03  1.54962878E-03  1.58390973E-02 -3.70211496E-03 -8.44563671E+00
 -1.28855802E-03 -1.62523815E-02  2.65907026E-02  7.27765586E-06 -1.60744228E-01
 -4.18613838E-02 -1.03152931E-01  1.28986514E-01 -8.09717120E-03 -2.34772818E+00
 -3.31142407E-03 -3.55519110E-02 -6.68927244E-03 -9.26715888E-02 -8.42357164E+00
 -1.41659722E+00 -4.15112776E+00 -1.61602334E+00 -2.09492729E+00  2.15179144E+00
 -1.62568182E-01 -1.11161571E+00 -1.23957371E+00 -3.68679481E-01  3.57766146E-01
 -3.96335383E-03 -9.79425139E-02 -1.52199362E-01 -2.52025583E-02  2.29510346E-02
 -6.41162943E+00 -1.41654208E+00 -4.15174983E+00 -1.53018627E+00  2.41719762E+00
 -1.85838000E+00 -1.62527533E-01 -1.11171002E+00 -1.22441112E+00  4.25241720E-01
 -3.47775680E-01 -3.96326836E-03 -9.79893998E-02 -1.51208624E-01  2.90679821E-02
 -2.52495191E-02 -1.19501671E+00 -6.41386738E+00 -3.96587973E-03 -9.80278119E-02
  1.51258149E-01  2.90651321E-02  2.53001853E-02 -1.62562783E-01 -1.11188400E+00
  1.22444438E+00  4.25028279E-01  3.48596415E-01 -1.41655081E+00 -4.15181245E+00
  1.52923870E+00  2.41519825E+00  1.86190539E+00 -2.02058786E-02 -2.40562960E-02
 -6.41400398E+00 -3.95948711E-03 -9.78850317E-02  1.52120764E-01 -2.52027056E-02
 -2.29030498E-02 -1.62508887E-01 -1.11131870E+00  1.23941035E+00 -3.68869888E-01
 -3.56994189E-01 -1.41653171E+00 -4.15092431E+00  1.61707996E+00 -2.09693004E+00
 -2.14873039E+00 -2.08957848E-02 -2.01628907E-02 -1.19477054E+00 -6.41133960E+00
Number of independent functions            I               19
Alpha MO coefficients                      R   N=         361
  9.96207859E-02 -3.52012169E-03  3.57318826E-03 -4.70876441E-05  3.43068502E-05
  9.82613723E-01  3.18883317E-02  8.25356023E-07  5.25712615E-05 -3.71062893E-07
  9.98034559E-02 -3.51349224E-03 -3.57275842E-03 -4.70057559E-05 -3.54233159E-05
 -7.53877176E-04 -7.54202727E-04 -7.55646341E-04 -7.54751841E-04 -4.73619760E-01
 -1.71379638E-02  8.78029058E-04  1.70669922E-04  2.25065288E-04 -4.03678668E-02
 -4.93915205E-03  6.42143329E-03  1.24807824E-05  8.66153782E-05  8.70952811E-01
  3.27321333E-02  2.27457773E-03 -3.18506535E-04  4.13588194E-04  3.24831382E-03
  3.24450601E-03 -5.98037488E-03 -5.98013730E-03  8.66110962E-01  3.35569324E-02
 -2.80773899E-03 -3.28582884E-04 -4.21594885E-04 -1.34741776E-01 -1.65267246E-02
 -1.91759744E-03  4.23716176E-05 -2.47959567E-05  4.64616831E-01  1.86650626E-02
  1.86624902E-03 -1.78942535E-04  2.25846984E-04 -5.95373347E-03 -5.95878617E-03
 -3.20423113E-03 -3.19748320E-03 -1.35836466E-01  3.61231389E-01 -1.14754202E-01
 -2.64706959E-03 -5.38092540E-03 -1.89053323E-01  4.60637136E-01  4.03706601E-07
 -9.05180915E-04 -2.51156984E-05 -1.35836105E-01  3.61231430E-01  1.14755855E-01