Jobname.Temp
FOPT      R                             STO-3G              
Number of atoms                            I                7
Charge                                     I                0
Multiplicity                               I                1
Number of electrons                        I               22
Number of alpha electrons                  I               11
Number of beta electrons                   I               11
Atomic numbers                             I   N=           7
           6           6           6           1           1           1
           1
Current cartesian coordinates              R   N=          21
  2.46654616E+00  6.33230721E-04  8.80339097E-04 -2.98834594E-06  5.17701191E-04
  4.27561980E-04 -2.46656328E+00 -1.41199567E-04 -3.25827117E-04  3.49136907E+00
  1.41145590E+00 -1.07556209E+00  3.49091053E+00 -1.41578789E+00  1.07045734E+00
 -3.49001383E+00 -1.41442707E+00 -1.07344171E+00 -3.49214506E+00  1.41270067E+00
  1.07265401E+00
Nuclear charges                            R   N=           7
  6.00000000E+00  6.00000000E+00  6.00000000E+00  1.00000000E+00  1.00000000E+00
  1.00000000E+00  1.00000000E+00
Number of basis functions                  I               19
Number of contracted shells                I               10
Number of primitive shells                 I               30
Highest angular momentum                   I                1
Largest degree of contraction              I                3
Shell types                                I   N=          10
           0          -1           0          -1           0          -1
           0           0           0           0
Number of primitives per shell             I   N=          10
           3           3           3           3           3           3
           3           3           3           3
Shell to atom map                          I   N=          10
           1           1           2           2           3           3
           4           5           6           7
Primitive exponents                        R   N=          30
  7.16168370E+01  1.30450960E+01  3.53051220E+00  2.94124940E+00  6.83483100E-01
  2.22289900E-01  7.16168370E+01  1.30450960E+01  3.53051220E+00  2.94124940E+00
  6.83483100E-01  2.22289900E-01  7.16168370E+01  1.30450960E+01  3.53051220E+00
  2.94124940E+00  6.83483100E-01  2.22289900E-01  3.42525091E+00  6.23913730E-01
  1.68855400E-01  3.42525091E+00  6.23913730E-01  1.68855400E-01  3.42525091E+00
  6.23913730E-01  1.68855400E-01  3.42525091E+00  6.23913730E-01  1.68855400E-01
Contraction coefficients                   R   N=          30
  1.54328970E-01  5.35328140E-01  4.44634540E-01 -9.99672301E-02  3.99512830E-01
  7.00115471E-01  1.54328970E-01  5.35328140E-01  4.44634540E-01 -9.99672301E-02
  3.99512830E-01  7.00115471E-01  1.54328970E-01  5.35328140E-01  4.44634540E-01
 -9.99672301E-02  3.99512830E-01  7.00115471E-01  1.54328971E-01  5.35328142E-01
  4.44634542E-01  1.54328971E-01  5.35328142E-01  4.44634542E-01  1.54328971E-01
  5.35328142E-01  4.44634542E-01  1.54328971E-01  5.35328142E-01  4.44634542E-01
P(S=P) Contraction coefficients            R   N=          30
  0.00000000E+00  0.00000000E+00  0.00000000E+00  1.55916272E-01  6.07683728E-01
  3.91957395E-01  0.00000000E+00  0.00000000E+00  0.00000000E+00  1.55916272E-01
  6.07683728E-01  3.91957395E-01  0.00000000E+00  0.00000000E+00  0.00000000E+00
  1.55916272E-01  6.07683728E-01  3.91957395E-01  0.00000000E+00  0.00000000E+00
  0.00000000E+00  0.00000000E+00  0.00000000E+00  0.00000000E+00  0.00000000E+00
  0.00000000E+00  0.00000000E+00  0.00000000E+00  0.00000000E+00  0.00000000E+00
Coordinates of each shell                  R   N=          30
  2.46654616E+00  6.33230721E-04  8.80339097E-04  2.46654616E+00  6.33230721E-04
  8.80339097E-04 -2.98834594E-06  5.17701191E-04  4.27561980E-04 -2.98834594E-06
  5.17701191E-04  4.27561980E-04 -2.46656328E+00 -1.41199567E-04 -3.25827117E-04
 -2.46656328E+00 -1.41199567E-04 -3.25827117E-04  3.49136907E+00  1.41145590E+00
 -1.07556209E+00  3.49091053E+00 -1.41578789E+00  1.07045734E+00 -3.49001383E+00
 -1.41442707E+00 -1.07344171E+00 -3.49214506E+00  1.41270067E+00  1.07265401E+00
Current cartesian coordinates              R   N=          21
  2.46654616E+00  6.33230721E-04  8.80339097E-04 -2.98834594E-06  5.17701191E-04
  4.27561980E-04 -2.46656328E+00 -1.41199567E-04 -3.25827117E-04  3.49136907E+00
  1.41145590E+00 -1.07556209E+00  3.49091053E+00 -1.41578789E+00  1.07045734E+00
 -3.49001383E+00 -1.41442707E+00 -1.07344171E+00 -3.49214506E+00  1.41270067E+00
  1.07265401E+00
Overlap Matrix                             R   N=         190
  1.00000000E+00  2.48362390E-01  1.00000000E+00  4.43082628E-17 -4.60077692E-16
  1.00000000E+00  2.60078845E-20 -7.36806593E-20  2.85536925E-35  1.00000000E+00
  5.64593891E-23  1.33727315E-20  6.95665405E-36  0.00000000E+00  1.00000000E+00
  4.30028521E-06  4.69435528E-02 -7.79556514E-02 -3.65132791E-06 -1.43100879E-05
  1.00000000E+00  4.69435528E-02  4.13774754E-01 -4.21346819E-01 -1.97352645E-05
 -7.73453868E-05  2.48362390E-01  1.00000000E+00  7.79556514E-02  4.21346819E-01
 -3.26271142E-01 -2.70995948E-05 -1.06207274E-04  1.11778497E-22  6.27723972E-23
  1.00000000E+00  3.65132791E-06  1.97352645E-05 -2.70995948E-05  2.52303724E-01
 -4.97459230E-09 -2.28950201E-22 -7.36806593E-20  0.00000000E+00  1.00000000E+00
  1.43100879E-05  7.73453868E-05 -1.06207274E-04 -4.97459230E-09  2.52303706E-01
  9.72396407E-22 -5.61618276E-20 -1.37560201E-41  3.48555816E-39  1.00000000E+00
  4.35873482E-20  8.79466679E-04 -2.18461953E-03 -3.42955200E-07 -5.34148756E-07
  4.29986078E-06  4.69428965E-02 -7.79545348E-02 -2.08242637E-05 -2.38105254E-05
  1.00000000E+00  8.79466679E-04  4.00259689E-02 -6.17166230E-02 -9.68866042E-06
 -1.50899765E-05  4.69428965E-02  4.13771547E-01 -4.21344749E-01 -1.12555276E-04
 -1.28696039E-04  2.48362390E-01  1.00000000E+00  2.18461953E-03  6.17166230E-02
 -8.76530260E-02 -1.62782957E-05 -2.53532572E-05  7.79545348E-02  4.21344749E-01
 -3.26271530E-01 -1.54556095E-04 -1.76719901E-04  1.10436235E-16 -1.99859001E-17
  1.00000000E+00  3.42955200E-07  9.68866042E-06 -1.62782957E-05  1.60394733E-02
 -3.98011244E-09  2.08242637E-05  1.12555276E-04 -1.54556095E-04  2.52301031E-01
 -4.72077966E-08 -7.60848361E-21  1.90944153E-20  8.95127977E-36  1.00000000E+00
  5.34148756E-07  1.50899765E-05 -2.53532572E-05 -3.98011244E-09  1.60394697E-02
  2.38105254E-05  1.28696039E-04 -1.76719901E-04 -4.72077966E-08  2.52301018E-01
 -1.64638431E-20  3.01539639E-20  3.47832703E-36  8.71389541E-40  1.00000000E+00
  6.30929600E-02  4.93972559E-01  2.34638369E-01  3.23014960E-01 -2.46456919E-01
  6.67471191E-03  1.13049979E-01  1.27464264E-01  5.15110381E-02 -3.92826163E-02
  1.48700436E-04  8.73211902E-03  1.35811459E-02  3.21774485E-03 -2.45100811E-03
  1.00000000E+00  6.30900075E-02  4.93960996E-01  2.34525636E-01 -3.24286041E-01
  2.44876954E-01  6.67561618E-03  1.13061081E-01  1.27461746E-01 -5.17127633E-02
  3.90693907E-02  1.48786912E-04  8.73533890E-03  1.35853751E-02 -3.22822929E-03
  2.44180528E-03  1.45098554E-01  1.00000000E+00  1.48907010E-04  8.73980962E-03
 -1.35906140E-02 -3.22863169E-03 -2.45119603E-03  6.67774559E-03  1.13087224E-01
 -1.27462271E-01 -5.16766515E-02 -3.92198826E-02  6.30963394E-02  4.93985795E-01
 -2.34333021E-01 -3.23820122E-01 -2.45704579E-01  1.83658967E-03  2.49273552E-03
  1.00000000E+00  1.48629350E-04  8.72947170E-03 -1.35785383E-02  3.21778913E-03
  2.44233495E-03  6.67381810E-03  1.13039005E-01 -1.27478312E-01  5.15507956E-02
  3.91409099E-02  6.30964798E-02  4.93986345E-01 -2.34821363E-01  3.23490006E-01
  2.45673816E-01  2.48044488E-03  1.83033559E-03  1.45104126E-01  1.00000000E+00
Core Hamiltonian Matrix                    R   N=         190
 -2.27081312E+01 -5.50664622E+00 -9.61100279E+00  7.50354259E-02  8.55505336E-01
 -8.94651949E+00  5.32742280E-05  5.52433821E-04  1.12641362E-04 -8.39568880E+00
  7.60655114E-05  7.92558497E-04  1.15400570E-04  9.23215795E-02 -8.34358110E+00
 -1.94728050E-04 -1.09361412E+00  1.81415721E+00  8.60813190E-05  3.33849748E-04
 -2.36480741E+01 -1.05552713E+00 -4.29395395E+00  4.49602258E+00  3.25727382E-04
  9.50671769E-04 -5.74009271E+00 -1.05541100E+01 -1.75094066E+00 -4.31656819E+00
  3.41198119E+00  3.99281359E-04  1.19547586E-03 -3.57777821E-07 -2.69190916E-06
 -1.02452773E+01 -7.99593890E-05 -1.03780053E-04  1.79404238E-04 -2.22723319E+00
  7.79024982E-03  2.60573171E-05  2.93882119E-04 -1.48493218E-04 -9.13490638E+00
 -3.18904794E-04 -6.95624586E-04  9.66445789E-04  7.79027946E-03 -2.22230599E+00
  1.80739024E-05  2.05237926E-04 -2.30049448E-04 -5.00186981E-07 -9.12933304E+00
  0.00000000E+00 -2.00773744E-02  4.96332421E-02  7.79199150E-06  1.21322941E-05
 -1.94710151E-04 -1.05551300E+00  1.75091665E+00  4.68292986E-04  5.34852257E-04
 -2.27081459E+01 -2.00773652E-02 -4.34583325E-01  6.71783176E-01  9.95074312E-05
  1.62789040E-04 -1.09359880E+00 -4.29392060E+00  4.31654708E+00  1.21359287E-03
  1.35255822E-03 -5.50664988E+00 -9.61101329E+00 -4.96332182E-02 -6.71783119E-01
  9.64313998E-01  1.64887018E-04  2.69259391E-04 -1.81413122E+00 -4.49599606E+00
  3.41198044E+00  1.58059908E-03  1.77124480E-03 -7.50343894E-02 -8.55498219E-01
 -8.94651912E+00 -7.77162165E-06 -1.12093648E-04  1.84866889E-04 -1.40757224E-01
  2.27219132E-08 -4.83581127E-04 -1.14736493E-03  1.46349157E-03 -2.22720957E+00
 -7.79069830E-03 -8.41470478E-06 -1.03813260E-04 -1.00069549E-04 -8.39570066E+00
 -1.21059660E-05 -1.66840696E-04  2.75630482E-04  1.88369236E-08 -1.40544003E-01
 -5.53404200E-04 -1.34954763E-03  1.71222113E-03 -7.79067830E-03 -2.22228319E+00
 -2.35766966E-05 -2.62824086E-04 -1.07940819E-04 -9.23328372E-02 -8.34360145E+00
 -1.40448263E+00 -4.11584523E+00 -1.51142108E+00 -2.41305899E+00  1.84133058E+00
 -1.55701571E-01 -1.07232167E+00 -1.19132642E+00 -4.12289660E-01  3.14327629E-01
 -3.39260530E-03 -8.82318825E-02 -1.37479017E-01 -2.63134066E-02  2.00004061E-02
 -6.37790598E+00 -1.40441821E+00 -4.11577995E+00 -1.51058063E+00  2.42285164E+00
 -1.82914091E+00 -1.55722728E-01 -1.07242550E+00 -1.19131232E+00  4.13930253E-01
 -3.12646489E-01 -3.39457122E-03 -8.82616242E-02 -1.37518031E-01  2.63886138E-02
 -1.99383655E-02 -1.14330913E+00 -6.37796903E+00 -3.39730475E-03 -8.83050688E-02
  1.37570574E-01  2.64001242E-02  2.00145960E-02 -1.55772433E-01 -1.07268108E+00
  1.19135513E+00  4.13693583E-01  3.13903102E-01 -1.40456159E+00 -4.11609365E+00
  1.50914344E+00  2.41926223E+00  1.83549930E+00 -1.74169648E-02 -2.23324321E-02
 -6.37827738E+00 -3.39098260E-03 -8.82069541E-02  1.37453513E-01 -2.63055996E-02
 -1.99300768E-02 -1.55680636E-01 -1.07221831E+00  1.19143250E+00 -4.12559507E-01
 -3.13144371E-01 -1.40456037E+00 -4.11593021E+00  1.51278563E+00 -2.41675962E+00
 -1.83533750E+00 -2.22374616E-02 -1.73670451E-02 -1.14337589E+00 -6.37784517E+00
Number of Excited States                   I                5
Excitation Energies                        R   N=           5
  2.83516729E-01  2.83955060E-01  3.97528428E-01  4.28228624E-01  4.56982210E-01
Oscillator Strengths                       R   N=           5
  6.50939054E-03  2.91932118E-07  1.69324302E+00  3.65875292E-07  1.09240130E-04
Alpha Amplitudes                           R   N=         440
 -4.64876066E-07 -4.78986946E-07  1.20312311E-06 -1.60988630E-05  1.77384885E-06
 -2.43461996E-07 -2.03795035E-07 -8.90144276E-05 -3.16604500E-07 -3.20366968E-07
 -1.42844347E-06  8.14801816E-06 -1.12942269E-06  1.86714879E-07  1.33318182E-07
  2.56386800E-06 -3.00502247E-07 -1.64931769E-07 -1.04167590E-05  4.42285542E-07
 -5.31861427E-06  2.11916686E-07  1.86217206E-07  1.29386469E-06  7.31952861E-06
  4.40106752E-06 -8.11669145E-05  4.74542403E-04 -7.53357731E-05  2.39291303E-06
  2.25769734E-06  8.85823199E-04  5.78101427E-05  2.66542301E-05 -3.46242123E-03
  4.59129097E-05 -2.19342610E-03  6.13070925E-06  5.92156711E-06  6.95609754E-05
 -4.29648271E-05 -4.64413879E-05 -1.99572925E-05 -2.96548173E-03 -1.39577239E-04
 -1.03098486E-05 -3.73481449E-06  9.43813170E-04 -8.16998629E-05 -2.06349535E-02
  4.30367938E-06 -1.73021324E-05 -2.34524410E-05  6.96637086E-03  4.75716977E-05
  4.71571366E-06 -2.91096987E-02 -1.25845618E-04 -4.90446184E-06  6.20984554E-06
 -5.75247123E-06 -2.18298148E-05 -2.25756794E-03 -4.26760160E-06 -1.65057594E-04
 -3.30697351E-05  1.73601088E-03  3.80683922E-05  6.95634660E-03  4.92615791E-06
 -1.41309692E-05 -1.45065373E-04  5.40990536E-01  1.77500997E-03  1.03247143E-04
 -9.13737524E-05 -7.06111182E-05  2.55041106E-05  9.99233427E-03  3.42231831E-06
 -3.79187139E-03 -4.53655396E-01  1.20304949E-04 -1.43681548E-04 -5.10076571E-05
  1.65760342E-03 -2.95771652E-05 -2.53634279E-06  4.33375075E-07 -3.16552429E-08
 -2.02681094E-04 -1.81634754E-07 -3.00152724E-04  2.17128307E-07  6.16600487E-08
 -5.32739683E-07  7.45805702E-07  3.76323826E-08  2.04093393E-04 -2.08214647E-06
  1.71693983E-04 -2.44115666E-07  2.43604820E-07 -4.79044685E-06  4.37221157E-07
 -3.30365008E-07 -4.33134685E-06 -1.04958069E-04 -3.66652261E-06 -3.29377624E-07
  6.22020634E-08 -2.27683864E-04 -5.54521127E-05  1.58792662E-05  1.37067128E-02
  8.68546677E-06  1.27636621E-02  2.40527118E-06  1.55418026E-05  5.44079547E-06
 -7.82736167E-05 -3.78621362E-06 -1.70609126E-05 -8.00968926E-03 -1.28803427E-05
 -1.17123324E-05 -4.54844206E-06 -1.17725564E-02  3.64261456E-05  3.47514297E-05
  3.62130565E-03 -1.62045122E-05  2.36546176E-02  1.72712496E-05  2.01640843E-05
  6.17914060E-06  1.00358116E-02 -1.05447558E-04 -2.54938450E-07 -4.83553106E-06
 -1.98995786E-05  3.77450665E-05 -9.03409107E-03 -1.73286404E-05 -1.81199561E-04
  2.44808202E-02 -6.11644441E-06  3.81418160E-05  1.61865392E-05  2.53749656E-03
 -8.51212562E-06 -9.96663540E-05  7.66269804E-05  1.05910885E-04  1.32346117E-05
 -6.29735013E-03  4.31516977E-05  6.73406846E-06 -4.18413499E-06  2.45473685E-02
  3.17666826E-03 -3.02205967E-01  8.02934761E-05 -9.92330553E-05 -4.17240223E-05
 -3.11619779E-03  6.11538127E-05 -1.36366895E-05  6.37231473E-01 -2.73412902E-03
  8.88045941E-05 -8.83569809E-05 -9.55497039E-05  1.31622415E-05  4.83973644E-03
  1.63904860E-05 -1.77361650E-07  3.73909316E-07  2.94916510E-07 -1.62894319E-04
 -3.71997422E-08 -1.85150121E-07  9.31737049E-08 -8.83168053E-04 -9.64875379E-07
  1.22449027E-06 -1.10541189E-05  2.74381225E-04 -7.48539414E-06  3.96407950E-07
 -4.05830746E-07  3.79024266E-04 -1.09780454E-06  8.77252708E-07 -5.20856733E-04
 -6.07985032E-06 -3.60465868E-04  5.31591992E-07 -1.01023873E-06 -8.27961095E-06
  5.67181765E-05 -7.84427924E-05 -2.81766273E-06  1.44742505E-02  3.62131084E-06
  4.73200919E-06 -3.69859909E-06  1.92500847E-02  2.28081019E-04 -1.48587699E-04
 -5.35002890E-02 -2.50446368E-05 -2.70287806E-02  1.02112012E-05 -9.87618618E-06
 -1.60800267E-06 -9.16775130E-05  6.26724246E-05  2.62939063E-05 -5.57198009E-02
  1.01262438E-05 -4.74016729E-05  1.27040732E-05  2.41227856E-02 -8.06720799E-05
  5.24086357E-02  3.79299774E-05 -7.13848118E-05 -1.21133618E-04  6.76885042E-02
 -9.51345180E-05 -1.04139434E-05 -1.06848655E-01 -3.55030372E-05 -4.72410188E-05
 -3.22724319E-05 -4.35623677E-04 -9.97467926E-05 -7.17557073E-02 -9.20050368E-06
 -8.59010232E-04  2.19115660E-04  2.36018259E-02  7.45556148E-06  1.22257750E-01
  1.04948715E-04 -2.73908910E-04  3.95450542E-06  4.27061085E-01  1.26159932E-05
 -1.07402891E-04  2.93689174E-05 -9.83039950E-05  1.39519648E-05  2.23928510E-02
  2.06371684E-05  6.15154053E-05  5.18712735E-01  7.27124051E-05  5.02546037E-06
  8.81710801E-05  2.81847090E-02 -1.66336322E-05 -2.54118148E-05  7.89347482E-07
 -7.75995603E-07 -5.90236889E-04 -2.23802368E-07 -8.42974213E-04  6.54760471E-09
 -5.46709031E-07  3.10980442E-08  9.41380970E-07 -9.90973696E-07  5.43666452E-04
 -5.39630408E-06  4.82668545E-04 -4.09851662E-07  8.05177923E-07 -1.30244262E-05
  1.10703191E-06 -1.39641961E-06 -1.12908416E-05 -2.63587272E-04 -1.01796747E-05
 -6.45295395E-07  5.38568163E-07 -6.18215689E-04 -1.30709423E-04  1.18701734E-04
  3.90913058E-02  1.48053138E-05  3.97957782E-02 -6.67443817E-06  1.99862817E-05
 -1.50223748E-06 -1.72399489E-04  2.26098204E-04  1.60020589E-05 -2.28612812E-02
  3.15890723E-06 -2.93739427E-06 -4.08932680E-06 -3.56802248E-02 -1.11778140E-04
  3.71725396E-05  1.41162554E-02  1.21931181E-05  7.86149047E-02  2.67277758E-05
  5.45847154E-06 -7.00710149E-07 -1.13086336E-01  1.15392874E-05 -2.85156869E-05
  4.11789276E-05  1.74915568E-05 -1.03192029E-05 -2.45267893E-02 -7.24909738E-05
  1.05930224E-04  9.91732903E-03 -6.47949527E-06  7.33204313E-05 -2.09880987E-05
  1.54513704E-02  1.63021063E-05 -2.95724952E-04  2.28216634E-04 -2.89374097E-04
  7.48070754E-06 -2.04509349E-02 -7.61764899E-06  2.74323370E-05  4.80664815E-06
  7.77673355E-02 -4.27701544E-06  6.21301790E-01 -3.26657474E-05  9.17025067E-05
  1.03580419E-04 -2.71344973E-03 -5.08043223E-07 -6.18771170E-05  2.86942227E-01
 -3.83894768E-05 -3.15858375E-05  2.01452810E-06 -3.83314793E-05 -1.15715553E-05
 -1.25750018E-02  4.46630694E-05 -4.48280117E-08 -1.51420230E-04  4.97648622E-07
 -2.49284121E-07  4.81672742E-07 -2.07093359E-05 -3.59312743E-09 -3.93529627E-07
  3.97596474E-06 -9.24850660E-06 -4.01894081E-08  2.59677629E-08 -2.20232295E-07
  1.75111399E-04  5.06586959E-06  8.61639787E-08  1.88981487E-04  1.99663405E-07
 -3.35794186E-07  1.02324677E-07 -2.19471260E-07 -3.53008656E-06  2.44871393E-04
  2.59697196E-07  8.51739792E-06  4.73725990E-02 -4.54317556E-05  3.81093139E-05
 -2.25937609E-05  6.62757098E-03 -2.73078456E-06  1.08137279E-05 -1.31754015E-01
  2.22618867E-06 -8.23123988E-05  4.11118794E-05  1.90826722E-05 -1.71368060E-05
 -2.39144187E-02  1.37077302E-05  3.45618866E-05  1.56271126E-01 -4.68092622E-05
 -4.00885277E-05 -6.20300486E-05  2.98398248E-02 -1.33970794E-05  1.79499306E-05
 -3.48008034E-04  5.82306012E-05  3.40486279E-06  6.16021147E-03 -8.18308866E-06
  6.25045615E-05 -3.86503002E-05 -4.08769423E-03 -2.67001874E-03  6.82245455E-05
  8.69710521E-03 -1.13910309E-06 -1.12170864E-02  7.03157526E-06 -2.48012465E-04
  3.59635342E-06  6.70638896E-01  2.20040988E-06  1.57980433E-04 -7.41808747E-05
 -4.62133477E-06  3.64061020E-05  4.80601492E-02 -4.74356175E-05  3.23483512E-04
 -2.48925034E-04 -3.18231391E-02 -1.34350913E-05 -1.19080175E-02  4.86157165E-05
 -1.37185545E-07  1.57128373E-07 -2.19045411E-04  2.84409846E-04  1.18921728E-05
 -3.12525922E-02 -1.18439306E-08 -2.11036029E-05  1.63805009E-05  2.88383155E-03
Beta Amplitudes                            R   N=         440
 -4.64876066E-07 -4.78986946E-07  1.20312311E-06 -1.60988630E-05  1.77384885E-06
 -2.43461996E-07 -2.03795035E-07 -8.90144276E-05 -3.16604500E-07 -3.20366968E-07
 -1.42844347E-06  8.14801816E-06 -1.12942269E-06  1.86714879E-07  1.33318182E-07
  2.56386800E-06 -3.00502247E-07 -1.64931769E-07 -1.04167590E-05  4.42285542E-07
 -5.31861427E-06  2.11916686E-07  1.86217206E-07  1.29386469E-06  7.31952861E-06
  4.40106752E-06 -8.11669145E-05  4.74542403E-04 -7.53357731E-05  2.39291303E-06
  2.25769734E-06  8.85823199E-04  5.78101427E-05  2.66542301E-05 -3.46242123E-03
  4.59129097E-05 -2.19342610E-03  6.13070925E-06  5.92156711E-06  6.95609754E-05
 -4.29648271E-05 -4.64413879E-05 -1.99572925E-05 -2.96548173E-03 -1.39577239E-04
 -1.03098486E-05 -3.73481449E-06  9.43813170E-04 -8.16998629E-05 -2.06349535E-02
  4.30367938E-06 -1.73021324E-05 -2.34524410E-05  6.96637086E-03  4.75716977E-05
  4.71571366E-06 -2.91096987E-02 -1.25845618E-04 -4.90446184E-06  6.20984554E-06
 -5.75247123E-06 -2.18298148E-05 -2.25756794E-03 -4.26760160E-06 -1.65057594E-04
 -3.30697351E-05  1.73601088E-03  3.80683922E-05  6.95634660E-03  4.92615791E-06
 -1.41309692E-05 -1.45065373E-04  5.40990536E-01  1.77500997E-03  1.03247143E-04
 -9.13737524E-05 -7.06111182E-05  2.55041106E-05  9.99233427E-03  3.42231831E-06
 -3.79187139E-03 -4.53655396E-01  1.20304949E-04 -1.43681548E-04 -5.10076571E-05
  1.65760342E-03 -2.95771652E-05 -2.53634279E-06  4.33375075E-07 -3.16552429E-08
 -2.02681094E-04 -1.81634754E-07 -3.00152724E-04  2.17128307E-07  6.16600487E-08
 -5.32739683E-07  7.45805702E-07  3.76323826E-08  2.04093393E-04 -2.08214647E-06
  1.71693983E-04 -2.44115666E-07  2.43604820E-07 -4.79044685E-06  4.37221157E-07
 -3.30365008E-07 -4.33134685E-06 -1.04958069E-04 -3.66652261E-06 -3.29377624E-07
  6.22020634E-08 -2.27683864E-04 -5.54521127E-05  1.58792662E-05  1.37067128E-02
  8.68546677E-06  1.27636621E-02  2.40527118E-06  1.55418026E-05  5.44079547E-06
 -7.82736167E-05 -3.78621362E-06 -1.70609126E-05 -8.00968926E-03 -1.28803427E-05
 -1.17123324E-05 -4.54844206E-06 -1.17725564E-02  3.64261456E-05  3.47514297E-05
  3.62130565E-03 -1.62045122E-05  2.36546176E-02  1.72712496E-05  2.01640843E-05
  6.17914060E-06  1.00358116E-02 -1.05447558E-04 -2.54938450E-07 -4.83553106E-06
 -1.98995786E-05  3.77450665E-05 -9.03409107E-03 -1.73286404E-05 -1.81199561E-04
  2.44808202E-02 -6.11644441E-06  3.81418160E-05  1.61865392E-05  2.53749656E-03
 -8.51212562E-06 -9.96663540E-05  7.66269804E-05  1.05910885E-04  1.32346117E-05
 -6.29735013E-03  4.31516977E-05  6.73406846E-06 -4.18413499E-06  2.45473685E-02
  3.17666826E-03 -3.02205967E-01  8.02934761E-05 -9.92330553E-05 -4.17240223E-05
 -3.11619779E-03  6.11538127E-05 -1.36366895E-05  6.37231473E-01 -2.73412902E-03
  8.88045941E-05 -8.83569809E-05 -9.55497039E-05  1.31622415E-05  4.83973644E-03
  1.63904860E-05 -1.77361650E-07  3.73909316E-07  2.94916510E-07 -1.62894319E-04
 -3.71997422E-08 -1.85150121E-07  9.31737049E-08 -8.83168053E-04 -9.64875379E-07
  1.22449027E-06 -1.10541189E-05  2.74381225E-04 -7.48539414E-06  3.96407950E-07
 -4.05830746E-07  3.79024266E-04 -1.09780454E-06  8.77252708E-07 -5.20856733E-04
 -6.07985032E-06 -3.60465868E-04  5.31591992E-07 -1.01023873E-06 -8.27961095E-06
  5.67181765E-05 -7.84427924E-05 -2.81766273E-06  1.44742505E-02  3.62131084E-06
  4.73200919E-06 -3.69859909E-06  1.92500847E-02  2.28081019E-04 -1.48587699E-04
 -5.35002890E-02 -2.50446368E-05 -2.70287806E-02  1.02112012E-05 -9.87618618E-06
 -1.60800267E-06 -9.16775130E-05  6.26724246E-05  2.62939063E-05 -5.57198009E-02
  1.01262438E-05 -4.74016729E-05  1.27040732E-05  2.41227856E-02 -8.06720799E-05
  5.24086357E-02  3.79299774E-05 -7.13848118E-05 -1.21133618E-04  6.76885042E-02
 -9.51345180E-05 -1.04139434E-05 -1.06848655E-01 -3.55030372E-05 -4.72410188E-05
 -3.22724319E-05 -4.35623677E-04 -9.97467926E-05 -7.17557073E-02 -9.20050368E-06
 -8.59010232E-04  2.19115660E-04  2.36018259E-02  7.45556148E-06  1.22257750E-01
  1.04948715E-04 -2.73908910E-04  3.95450542E-06  4.27061085E-01  1.26159932E-05
 -1.07402891E-04  2.93689174E-05 -9.83039950E-05  1.39519648E-05  2.23928510E-02
  2.06371684E-05  6.15154053E-05  5.18712735E-01  7.27124051E-05  5.02546037E-06
  8.81710801E-05  2.81847090E-02 -1.66336322E-05 -2.54118148E-05  7.89347482E-07
 -7.75995603E-07 -5.90236889E-04 -2.23802368E-07 -8.42974213E-04  6.54760471E-09
 -5.46709031E-07  3.10980442E-08  9.41380970E-07 -9.90973696E-07  5.43666452E-04
 -5.39630408E-06  4.82668545E-04 -4.09851662E-07  8.05177923E-07 -1.30244262E-05
  1.10703191E-06 -1.39641961E-06 -1.12908416E-05 -2.63587272E-04 -1.01796747E-05
 -6.45295395E-07  5.38568163E-07 -6.18215689E-04 -1.30709423E-04  1.18701734E-04
  3.90913058E-02  1.48053138E-05  3.97957782E-02 -6.67443817E-06  1.99862817E-05
 -1.50223748E-06 -1.72399489E-04  2.26098204E-04  1.60020589E-05 -2.28612812E-02
  3.15890723E-06 -2.93739427E-06 -4.08932680E-06 -3.56802248E-02 -1.11778140E-04
  3.71725396E-05  1.41162554E-02  1.21931181E-05  7.86149047E-02  2.67277758E-05
  5.45847154E-06 -7.00710149E-07 -1.13086336E-01  1.15392874E-05 -2.85156869E-05
  4.11789276E-05  1.74915568E-05 -1.03192029E-05 -2.45267893E-02 -7.24909738E-05
  1.05930224E-04  9.91732903E-03 -6.47949527E-06  7.33204313E-05 -2.09880987E-05
  1.54513704E-02  1.63021063E-05 -2.95724952E-04  2.28216634E-04 -2.89374097E-04
  7.48070754E-06 -2.04509349E-02 -7.61764899E-06  2.74323370E-05  4.80664815E-06
  7.77673355E-02 -4.27701544E-06  6.21301790E-01 -3.26657474E-05  9.17025067E-05
  1.03580419E-04 -2.71344973E-03 -5.08043223E-07 -6.18771170E-05  2.86942227E-01
 -3.83894768E-05 -3.15858375E-05  2.01452810E-06 -3.83314793E-05 -1.15715553E-05
 -1.25750018E-02  4.46630694E-05 -4.48280117E-08 -1.51420230E-04  4.97648622E-07
 -2.49284121E-07  4.81672742E-07 -2.07093359E-05 -3.59312743E-09 -3.93529627E-07
  3.97596474E-06 -9.24850660E-06 -4.01894081E-08  2.59677629E-08 -2.20232295E-07
  1.75111399E-04  5.06586959E-06  8.61639787E-08  1.88981487E-04  1.99663405E-07
 -3.35794186E-07  1.02324677E-07 -2.19471260E-07 -3.53008656E-06  2.44871393E-04
  2.59697196E-07  8.51739792E-06  4.73725990E-02 -4.54317556E-05  3.81093139E-05
 -2.25937609E-05  6.62757098E-03 -2.73078456E-06  1.08137279E-05 -1.31754015E-01
  2.22618867E-06 -8.23123988E-05  4.11118794E-05  1.90826722E-05 -1.71368060E-05
 -2.39144187E-02  1.37077302E-05  3.45618866E-05  1.56271126E-01 -4.68092622E-05
 -4.00885277E-05 -6.20300486E-05  2.98398248E-02 -1.33970794E-05  1.79499306E-05
 -3.48008034E-04  5.82306012E-05  3.40486279E-06  6.16021147E-03 -8.18308866E-06
  6.25045615E-05 -3.86503002E-05 -4.08769423E-03 -2.67001874E-03  6.82245455E-05
  8.69710521E-03 -1.13910309E-06 -1.12170864E-02  7.03157526E-06 -2.48012465E-04
  3.59635342E-06  6.70638896E-01  2.20040988E-06  1.57980433E-04 -7.41808747E-05
 -4.62133477E-06  3.64061020E-05  4.80601492E-02 -4.74356175E-05  3.23483512E-04
 -2.48925034E-04 -3.18231391E-02 -1.34350913E-05 -1.19080175E-02  4.86157165E-05
 -1.37185545E-07  1.57128373E-07 -2.19045411E-04  2.84409846E-04  1.18921728E-05
 -3.12525922E-02 -1.18439306E-08 -2.11036029E-05  1.63805009E-05  2.88383155E-03
Number of independent functions            I               19
Alpha MO coefficients                      R   N=         361
 -7.25272223E-02  4.30183463E-03 -3.73311519E-03  7.12472967E-07  4.76346907E-07
 -9.87427596E-01 -3.19831271E-02 -4.54482551E-08  1.80804401E-07 -1.43637706E-07
 -7.25144232E-02  4.30209624E-03  3.73313772E-03  1.22584609E-06  1.16252042E-06
  5.89884090E-04  5.89990118E-04  5.90169101E-04  5.89665320E-04  7.12451742E-01
  2.71763378E-02 -2.15096871E-03 -8.44997506E-06 -1.10875520E-05 -1.02010819E-01
 -1.52170121E-02 -1.43576695E-04  1.50783233E-06  1.29567370E-06  6.82817691E-01
  2.60867149E-02  2.08369364E-03 -1.01683598E-06  1.02640153E-06 -4.87167948E-03
 -4.87174155E-03 -4.66976486E-03 -4.66920602E-03  6.86741609E-01  2.52406339E-02
 -1.54566444E-03 -7.94189783E-06 -1.05217655E-05  2.14571319E-03  3.21080542E-04
 -6.79861680E-03 -5.18452662E-07 -6.25540675E-07 -7.16214534E-01 -2.63660225E-02
 -1.63491623E-03  7.56084035E-07 -1.37380667E-06 -4.69106823E-03 -4.69113830E-03
  4.89303448E-03  4.89270148E-03  1.35286970E-01 -3.63379026E-01  1.09541663E-01
  9.47401059E-05  1.32469813E-04  1.85902174E-01 -4.65302970E-01  2.34581289E-06
  4.18973386E-05  3.01407742E-05  1.35292796E-01 -3.63392590E-01 -1.09538708E-01
 -6.29882537E-06 -3.49004321E-05 -8.02901252E-02 -8.02946891E-02 -8.03085198E-02
 -8.02930889E-02  1.62217670E-01 -4.25292410E-01  2.89787750E-02  1.61784175E-04
  2.14744997E-04  6.51084798E-06 -1.74362398E-05 -3.24067455E-01 -1.14482911E-05
 -2.66702142E-05 -1.62215441E-01  4.25283729E-01  2.89643325E-02 -1.07701745E-05
  3.10634525E-05 -1.36571277E-01 -1.36570374E-01  1.36578804E-01  1.36575355E-01
 -7.00886508E-02  2.29712171E-01  3.23658295E-01 -3.80561894E-04 -4.40157210E-04
  1.39074091E-01 -4.20115740E-01  1.24718919E-05 -1.15010681E-04 -1.18295349E-04
 -7.00843510E-02  2.29695384E-01 -3.23667779E-01 -1.90023268E-04 -1.16273015E-04
  2.17131642E-01  2.17124750E-01  2.17145169E-01  2.17106888E-01  4.44792596E-05
 -1.24001107E-04  2.59503390E-04 -3.40956728E-01  1.74869995E-01 -1.27103420E-05
  2.84083663E-05 -4.09495294E-04 -2.18495446E-01 -1.47351584E-04  2.53144823E-05
 -1.35702596E-04  6.30511681E-04 -3.41344208E-01 -1.75327145E-01 -2.61193274E-01
  2.61523957E-01  2.61556690E-01 -2.61984442E-01  3.17707592E-05  5.05849171E-05
  1.50412401E-03  2.53875548E-01 -2.94491915E-01 -1.71118636E-05  4.61931111E-05
 -1.76273209E-03  1.78725511E-04 -1.97223824E-01  2.77059218E-05 -2.74318150E-04
  1.80927453E-03 -2.53338558E-01 -2.94237721E-01  2.71177370E-01 -2.69711034E-01
  2.69254853E-01 -2.70828463E-01  4.24074095E-03 -6.04848007E-02 -4.00166620E-01
  1.09650221E-03 -5.19070907E-04  1.75269672E-07 -2.41926342E-06  4.65994348E-01
 -8.81175143E-05 -5.39327274E-04 -4.23978826E-03  6.04761150E-02 -4.00162120E-01
 -1.59255735E-03 -1.45578628E-03 -1.94295501E-01 -1.95934867E-01  1.96484520E-01
  1.93730804E-01 -1.99119773E-04  8.74881715E-04  6.69264850E-04  3.59754026E-01
  2.96096210E-01  6.04735324E-05 -2.11102763E-04 -4.08492052E-04  8.40145225E-06
  5.66831720E-01  3.77346014E-07 -2.21804636E-05  1.81906806E-04 -3.59749674E-01
  2.96064466E-01  1.28434801E-01 -1.28416394E-01  1.28405414E-01 -1.28445437E-01
  2.08624987E-04 -9.40923782E-04 -6.28145206E-04 -2.18081617E-01 -4.43499184E-01
 -6.82957175E-05  2.38460514E-04  2.85778863E-04 -5.55849481E-01  1.04114520E-06
  3.90965081E-05 -1.60584989E-04 -8.31761384E-05 -2.18121310E-01  4.43505550E-01
  1.48655764E-01 -1.48539171E-01 -1.48563968E-01  1.48599567E-01  3.09492679E-04
 -1.67965393E-03 -7.88513004E-04 -2.45933367E-01 -4.71134574E-01 -9.04268815E-05
  4.11938351E-04  3.54483627E-05  7.71852253E-01 -3.13081012E-05  6.58677917E-05
 -3.22369444E-04 -1.78189831E-04 -2.46014931E-01  4.71163751E-01 -2.19978368E-01
  2.21626582E-01  2.20903760E-01 -2.20627617E-01 -3.63528241E-04  2.04438663E-03
  1.01705591E-03  4.25686452E-01  3.78818607E-01  8.36420689E-05 -3.89930473E-04