Jobname.Temp
FREQ      U                             6-31G               
Number of atoms                            I                6
Charge                                     I                0
Multiplicity                               I                2
Number of electrons                        I               61
Number of alpha electrons                  I               31
Number of beta electrons                   I               30
Atomic numbers                             I   N=           6
           6          17          35           1           1           1
Current cartesian coordinates              R   N=          18
 -1.15994683E+00 -3.81834647E-05  2.79107086E-04 -4.51988635E+00  2.17866867E-05
 -9.67189633E-05  2.49365050E+00  9.28536634E-06 -4.11815513E-05 -1.15995501E+00
  1.89988981E+00 -8.85800205E-01 -1.15997393E+00 -1.71783890E+00 -1.20160753E+00
 -1.16008958E+00 -1.82517168E-01  2.08881867E+00
Nuclear charges                            R   N=           6
  6.00000000E+00  1.70000000E+01  3.50000000E+01  1.00000000E+00  1.00000000E+00
  1.00000000E+00
Number of basis functions                  I               57
Number of contracted shells                I               20
Number of primitive shells                 I               64
Highest angular momentum                   I                2
Largest degree of contraction              I                6
Shell types                                I   N=          20
           0          -1          -1           0          -1          -1
          -1           0          -1          -1          -1          -1
           2           2           0           0           0           0
           0           0
Number of primitives per shell             I   N=          20
           6           3           1           6           6           3
           1           6           6           6           3           1
           3           1           3           1           3           1
           3           1
Shell to atom map                          I   N=          20
           1           1           1           2           2           2
           2           3           3           3           3           3
           3           3           4           4           5           5
           6           6
Primitive exponents                        R   N=          64
  3.04752490E+03  4.57369510E+02  1.03948690E+02  2.92101550E+01  9.28666300E+00
  3.16392700E+00  7.86827240E+00  1.88128850E+00  5.44249300E-01  1.68714400E-01
  2.51801000E+04  3.78035000E+03  8.60474000E+02  2.42145000E+02  7.73349000E+01
  2.62470000E+01  4.91765000E+02  1.16984000E+02  3.74153000E+01  1.37834000E+01
  5.45215000E+00  2.22588000E+00  3.18649000E+00  1.14427000E+00  4.20377000E-01
  1.42657000E-01  1.13718200E+05  1.70744400E+04  3.88957600E+03  1.09709600E+03
  3.52062400E+02  1.20700200E+02  2.47113800E+03  5.89383800E+02  1.91873800E+02
  7.29533900E+01  3.00583900E+01  1.25292700E+01  1.09641100E+02  3.85894800E+01
  1.63781800E+01  7.22183600E+00  3.26369700E+00  1.46549900E+00  2.10365100E+00
  7.54705000E-01  3.00514000E-01  1.09071000E-01  6.22551400E+01  1.73128400E+01
  5.60791500E+00  1.74648600E+00  1.87311370E+01  2.82539370E+00  6.40121700E-01
  1.61277800E-01  1.87311370E+01  2.82539370E+00  6.40121700E-01  1.61277800E-01
  1.87311370E+01  2.82539370E+00  6.40121700E-01  1.61277800E-01
Contraction coefficients                   R   N=          64
  1.83470016E-03  1.40373012E-02  6.88426061E-02  2.32184421E-01  4.67941342E-01
  3.62312032E-01 -1.19332409E-01 -1.60854212E-01  1.14345648E+00  1.00000000E+00
  1.83300031E-03  1.40340024E-02  6.90970118E-02  2.37452040E-01  4.83034082E-01
  3.39856058E-01 -2.29740199E-03 -3.07140266E-02 -1.12528097E-01  4.50160390E-02
  5.89353510E-01  4.65206403E-01 -2.51831288E-01  6.15893150E-02  1.06018542E+00
  1.00000000E+00  1.71769602E-03  1.31674402E-02  6.50455308E-02  2.26950503E-01
  4.76835706E-01  3.58367704E-01  2.24368693E-03  2.99485291E-02  1.25600896E-01
 -9.83278571E-04 -6.01314082E-01 -4.91398286E-01 -5.97568320E-03  5.54212219E-02
  2.68120009E-01 -1.54360605E-01 -7.20630625E-01 -3.31643711E-01  3.02902925E-01
 -2.15265918E-01 -9.63394181E-01  1.00000000E+00  7.70422846E-02  3.70738374E-01
  7.09762750E-01  1.00000000E+00  3.34945995E-02  2.34726947E-01  8.13757318E-01
  1.00000000E+00  3.34945995E-02  2.34726947E-01  8.13757318E-01  1.00000000E+00
  3.34945995E-02  2.34726947E-01  8.13757318E-01  1.00000000E+00
P(S=P) Contraction coefficients            R   N=          64
  0.00000000E+00  0.00000000E+00  0.00000000E+00  0.00000000E+00  0.00000000E+00
  0.00000000E+00  6.89990956E-02  3.16423980E-01  7.44308252E-01  1.00000000E+00
  0.00000000E+00  0.00000000E+00  0.00000000E+00  0.00000000E+00  0.00000000E+00
  0.00000000E+00  3.98940055E-03  3.03180042E-02  1.29880018E-01  3.27951045E-01
  4.53527062E-01  2.52154035E-01 -1.42990127E-02  3.23572288E-01  7.43507661E-01
  1.00000000E+00  0.00000000E+00  0.00000000E+00  0.00000000E+00  0.00000000E+00
  0.00000000E+00  0.00000000E+00  3.79018184E-03  2.99597888E-02  1.31822795E-01
  3.43270786E-01  4.64234481E-01  2.07938691E-01 -6.90748264E-03 -3.04143184E-02
  4.60272476E-02  3.65068881E-01  4.94923174E-01  2.09039389E-01 -2.82671388E-02
  3.50306486E-01  7.18244570E-01  1.00000000E+00  0.00000000E+00  0.00000000E+00
  0.00000000E+00  0.00000000E+00  0.00000000E+00  0.00000000E+00  0.00000000E+00
  0.00000000E+00  0.00000000E+00  0.00000000E+00  0.00000000E+00  0.00000000E+00
  0.00000000E+00  0.00000000E+00  0.00000000E+00  0.00000000E+00
Coordinates of each shell                  R   N=          60
 -1.15994683E+00 -3.81834647E-05  2.79107086E-04 -1.15994683E+00 -3.81834647E-05
  2.79107086E-04 -1.15994683E+00 -3.81834647E-05  2.79107086E-04 -4.51988635E+00
  2.17866867E-05 -9.67189633E-05 -4.51988635E+00  2.17866867E-05 -9.67189633E-05
 -4.51988635E+00  2.17866867E-05 -9.67189633E-05 -4.51988635E+00  2.17866867E-05
 -9.67189633E-05  2.49365050E+00  9.28536634E-06 -4.11815513E-05  2.49365050E+00
  9.28536634E-06 -4.11815513E-05  2.49365050E+00  9.28536634E-06 -4.11815513E-05
  2.49365050E+00  9.28536634E-06 -4.11815513E-05  2.49365050E+00  9.28536634E-06
 -4.11815513E-05  2.49365050E+00  9.28536634E-06 -4.11815513E-05  2.49365050E+00
  9.28536634E-06 -4.11815513E-05 -1.15995501E+00  1.89988981E+00 -8.85800205E-01
 -1.15995501E+00  1.89988981E+00 -8.85800205E-01 -1.15997393E+00 -1.71783890E+00
 -1.20160753E+00 -1.15997393E+00 -1.71783890E+00 -1.20160753E+00 -1.16008958E+00
 -1.82517168E-01  2.08881867E+00 -1.16008958E+00 -1.82517168E-01  2.08881867E+00
Overlap Matrix                             R   N=        1653
  1.00000000E+00  2.19058872E-01  1.00000000E+00 -1.61072321E-17 -9.34488791E-17
  1.00000000E+00 -4.04561171E-22 -3.26737306E-21  3.31987673E-36  1.00000000E+00
 -3.82774262E-20  2.78795897E-20 -2.10211933E-35 -5.33743133E-40  1.00000000E+00
  1.84261053E-01  8.12273068E-01 -6.53434713E-17 -5.83214682E-21  0.00000000E+00
  1.00000000E+00  1.16092226E-17  8.61450089E-18  5.69754058E-01  0.00000000E+00
  0.00000000E+00  0.00000000E+00  1.00000000E+00 -6.71903725E-23 -4.98852774E-21
  0.00000000E+00  5.69754058E-01  0.00000000E+00  0.00000000E+00  0.00000000E+00
  1.00000000E+00 -2.83898655E-21  0.00000000E+00  0.00000000E+00  0.00000000E+00
  5.69754058E-01  0.00000000E+00  0.00000000E+00  0.00000000E+00  1.00000000E+00
  9.19306448E-16  2.44987470E-04 -7.79257542E-04  1.39086411E-08 -8.71638558E-08
  5.79248876E-03 -1.59176996E-02  2.84108345E-07 -1.78047436E-06  1.00000000E+00
  6.49117564E-08  3.79743017E-03 -1.02251083E-02  1.82503671E-07 -1.14372954E-06
  4.72997411E-02 -1.23368479E-01  2.20195225E-06 -1.37993818E-05  2.67196851E-01
  1.00000000E+00  2.07397222E-07  4.34349795E-03 -1.06866657E-02  2.11123616E-07
 -1.32308745E-06  1.95430792E-02 -3.70125000E-02  9.13369415E-07 -5.72398119E-06
  6.48029786E-16  8.78392872E-17  1.00000000E+00 -3.70174605E-12 -7.75252735E-08
  2.11123616E-07  1.14192841E-03  2.36152330E-11 -3.48816226E-07  9.13369415E-07
  1.41607240E-02  1.02164940E-10  6.92614706E-21 -8.38089559E-21 -1.18167261E-35
  1.00000000E+00  2.31984172E-11  4.85841982E-07 -1.32308745E-06  2.36152330E-11
  1.14192827E-03  2.18599121E-06 -5.72398119E-06  1.02164940E-10  1.41607233E-02
 -3.94543131E-21  1.46256602E-20  1.02525835E-34 -7.00531528E-40  1.00000000E+00
  4.67693882E-03  7.95741589E-02 -1.23582749E-01  2.20577667E-06 -1.38233489E-05
  2.28627477E-01 -4.45346254E-01  7.94879854E-06 -4.98142072E-05  1.11792091E-02
  3.35814146E-01  5.78515043E-19 -4.16200796E-21  1.61022045E-20  1.00000000E+00
  1.30590821E-02  1.46581775E-01 -2.03495744E-01  4.40047071E-06 -2.75772444E-05
  2.35601320E-01 -3.06639154E-01  8.52008360E-06 -5.33943851E-05  5.26273468E-17
 -1.63055966E-18  3.25434154E-01  0.00000000E+00  4.80745010E-37  0.00000000E+00
  1.00000000E+00 -2.33086080E-07 -2.61627663E-06  4.40047071E-06  4.30488292E-02
  4.92214670E-10 -4.20514915E-06  8.52008360E-06  1.70714410E-01  9.53013988E-10
  3.36470548E-23 -1.69900613E-21  0.00000000E+00  3.25434154E-01 -3.52444912E-41
  6.28214440E-23  0.00000000E+00  1.00000000E+00  1.46072368E-06  1.63959051E-05
 -2.75772444E-05  4.92214670E-10  4.30488262E-02  2.63531866E-05 -5.33943851E-05
  9.53013988E-10  1.70714405E-01 -6.17119106E-23 -1.51924185E-21  4.80745010E-37
 -3.52444912E-41  3.25434154E-01  1.17839625E-20  0.00000000E+00  2.32381340E-42
  1.00000000E+00  3.43775089E-02  2.16725156E-01 -1.73817096E-01  3.10238846E-06
 -1.94423120E-05  4.15655045E-01 -5.25635822E-01  9.38185337E-06 -5.87949972E-05
  3.40560234E-02  2.55649358E-01  9.87584601E-19 -1.27025346E-21  1.89790417E-21
  8.25875607E-01  0.00000000E+00  0.00000000E+00 -4.84618796E-21  1.00000000E+00
  8.45777861E-02  4.29630520E-01 -2.18756777E-01  6.34915633E-06 -3.97894333E-05
  5.71629308E-01 -3.08683292E-01  1.29023872E-05 -8.08577785E-05  1.68963915E-18
 -9.68660064E-21  7.13886845E-02  0.00000000E+00  0.00000000E+00  0.00000000E+00
  6.24326097E-01  0.00000000E+00  0.00000000E+00  0.00000000E+00  1.00000000E+00
 -1.50959344E-06 -7.66829499E-06  6.34915633E-06  1.36966540E-01  7.10184909E-10
 -1.02027718E-05  1.29023872E-05  4.14197002E-01  1.44319658E-09  9.93635633E-26
 -2.67008877E-22  0.00000000E+00  7.13886845E-02 -1.30043069E-41  0.00000000E+00
  0.00000000E+00  6.24326097E-01  0.00000000E+00 -2.55939215E-21  0.00000000E+00
  1.00000000E+00  9.46044864E-06  4.80563237E-05 -3.97894333E-05  7.10184909E-10
  1.36966536E-01  6.39395987E-05 -8.08577785E-05  1.44319658E-09  4.14196993E-01
 -6.85161748E-23 -5.00953332E-22  0.00000000E+00 -1.30043069E-41  7.13886845E-02
 -9.78306801E-22  0.00000000E+00  0.00000000E+00  6.24326097E-01  0.00000000E+00
  0.00000000E+00  0.00000000E+00  1.00000000E+00  4.17440110E-20  2.48785558E-05
  8.70216573E-05  1.13061620E-09 -7.62865896E-09  1.33537979E-03  4.00409816E-03
  5.20226620E-08 -3.51014912E-07  0.00000000E+00  5.57679370E-49  6.22383867E-48
 -1.10937182E-53  4.92841058E-53  2.92512647E-11  1.86105959E-10 -3.31725671E-16
  1.47369915E-15  1.00731168E-05  5.33231983E-05 -9.50462513E-11  4.22245223E-10
  1.00000000E+00 -2.92804988E-16 -2.04824124E-04 -6.94501664E-04 -9.02321170E-09
  6.08827332E-08 -9.31126623E-03 -2.76530884E-02 -3.59278723E-07  2.42417793E-06
  0.00000000E+00 -5.80158436E-42 -5.58818572E-41  9.96069480E-47 -4.42506225E-46
 -3.20436023E-10 -1.98844302E-09  3.54431206E-15 -1.57456903E-14 -7.29225322E-05
 -3.82887202E-04  6.82479565E-10 -3.03193163E-09 -2.89929126E-01  1.00000000E+00
 -6.48186885E-16 -1.12744052E-04 -3.56641232E-04 -4.98735832E-09  3.36514333E-08
 -1.65872179E-03 -3.82760951E-03 -6.40899965E-08  4.32437395E-07  0.00000000E+00
 -1.83885852E-41 -1.76169951E-40  3.15713024E-46 -1.40256259E-45 -2.54516182E-10
 -1.54444071E-09  2.82286258E-15 -1.25406339E-14 -2.10046899E-05 -1.02483060E-04
  1.96805094E-10 -8.74311291E-10  1.30083710E-15  4.78040094E-16  1.00000000E+00
 -8.42147367E-21 -1.46481067E-09 -4.98735832E-09  2.72274803E-05  4.37211344E-13
 -2.15507012E-08 -6.40899965E-08  1.10529140E-03  5.61837986E-12  0.00000000E+00
  3.27768428E-47  3.15713024E-46  9.52534241E-43  2.50000601E-51  4.53663879E-16
  2.82286258E-15  3.92520607E-11  2.23531273E-20  3.74399341E-11  1.96805094E-10
  7.92925978E-06  1.55842135E-15 -3.49921432E-21  1.65775105E-21  6.38470327E-36
  1.00000000E+00  5.68225985E-20  9.88358472E-09  3.36514333E-08  4.37211344E-13
  2.72274775E-05  1.45410042E-07  4.32437395E-07  5.61837986E-12  1.10529136E-03
  0.00000000E+00 -1.45611900E-46 -1.40256259E-45  2.50000601E-51  9.52534230E-43
 -2.01541253E-15 -1.25406339E-14  2.23531273E-20  3.92520606E-11 -1.66327794E-10
 -8.74311291E-10  1.55842135E-15  7.92925978E-06  5.57042198E-21 -2.95443407E-20
 -2.55388131E-35 -1.26778962E-40  1.00000000E+00 -1.72716680E-07 -2.55525195E-03
 -6.97669168E-03 -9.06436503E-08  6.11604090E-07 -4.48880177E-02 -1.24594654E-01
 -1.61877789E-06  1.09224549E-05 -7.99198287E-32 -1.97763610E-20 -8.90597734E-20
  1.58745122E-25 -7.05228963E-25 -3.24096737E-08 -1.63667684E-07  2.91730435E-13
 -1.29601937E-12 -4.57836710E-04 -2.26385524E-03  4.03522220E-09 -1.79265702E-08
 -1.57833769E-02  3.92854304E-01 -1.23449318E-15  1.60156951E-21  2.98545608E-20
  1.00000000E+00 -6.62598318E-07 -3.88434178E-03 -9.76308686E-03 -1.39056314E-07
  9.38261096E-07 -2.58139170E-02 -5.47617443E-02 -9.34967250E-07  6.30854773E-06
 -8.11923087E-31 -1.27636798E-19 -5.68180944E-19  1.02454242E-24 -4.55155398E-24
 -7.62642975E-08 -3.73028325E-07  6.85871181E-13 -3.04699897E-12 -4.26609354E-04
 -1.95347411E-03  3.76903681E-09 -1.67440353E-08  1.41222615E-16 -1.84293210E-16
  3.72382451E-01  3.89164884E-36 -4.11860642E-35  2.59946023E-16  1.00000000E+00
 -8.60871212E-12 -5.04667447E-08 -1.39056314E-07  9.39847422E-04  1.21902206E-11
 -3.35383556E-07 -9.34967250E-07  1.72011369E-02  8.19628874E-11  1.44721713E-36
  2.27506968E-25  1.02454242E-24  6.61162328E-21  8.11294441E-30  1.35937750E-13
  6.85871181E-13  1.17616533E-08  5.43114139E-18  7.60412376E-10  3.76903681E-09
  1.61044815E-04  2.98455051E-14  4.57462036E-22  5.55067505E-22  3.89164884E-36
  3.72382451E-01 -9.96461130E-41 -1.57512824E-22 -1.17160576E-36  1.00000000E+00
  5.80859611E-11  3.40516598E-07  9.38261096E-07  1.21902206E-11  9.39847342E-04
  2.26294897E-06  6.30854773E-06  8.19628874E-11  1.72011363E-02 -6.42929636E-36
 -1.01070509E-24 -4.55155398E-24  8.11294441E-30  6.61162325E-21 -6.03906673E-13
 -3.04699897E-12  5.43114139E-18  1.17616533E-08 -3.37814999E-09 -1.67440353E-08
  2.98455051E-14  1.61044815E-04 -1.85878018E-21 -3.39335035E-21 -4.11860642E-35
 -9.96461130E-41  3.72382451E-01  3.57173116E-21 -3.84474065E-36  1.33519681E-42
  1.00000000E+00 -6.12959757E-03 -7.72455824E-02 -1.10172035E-01 -1.43139411E-06
  9.65811161E-06 -2.23020255E-01 -4.28776237E-01 -5.57081279E-06  3.75882026E-05
 -2.43803372E-08 -6.53740459E-07 -9.09356302E-07  1.62088754E-12 -7.20083128E-12
 -1.81056793E-04 -4.87160491E-04  8.68342109E-10 -3.85763039E-09 -7.68936960E-03
 -2.77448242E-02  4.94539266E-08 -2.19700240E-07 -2.10199866E-03  3.42267370E-02
 -2.40991975E-16  5.85096555E-22  9.08453153E-22  3.65513681E-01  6.37841877E-16
  1.13351558E-21 -6.62691627E-21  1.00000000E+00 -1.72484792E-02 -1.56011869E-01
 -1.96147181E-01 -3.10471109E-06  2.09485606E-05 -2.72665934E-01 -3.64794375E-01
 -7.10013548E-06  4.79070722E-05 -1.38644003E-07 -3.35454196E-06 -4.50436819E-06
  8.34314319E-12 -3.70646112E-11 -6.06830899E-04 -1.54670894E-03  2.92552747E-09
 -1.29967251E-08 -1.49202353E-02 -4.89478517E-02  9.72868603E-08 -4.32199181E-07
  1.93588764E-18 -7.45520254E-18  3.13052893E-02 -9.53346129E-38 -5.54222937E-38
  2.22138528E-16  3.47980844E-01  4.14011847E-37 -1.93489721E-36  2.62641424E-16
  1.00000000E+00 -2.24098353E-07 -2.02696148E-06 -3.10471109E-06  4.28172905E-02
  2.72171122E-10 -3.54257243E-06 -7.10013548E-06  1.81691297E-01  6.22425656E-10
  2.47126826E-13  5.97932322E-12  8.34314319E-12  1.76332764E-07  6.60660363E-17
  1.08164934E-09  2.92552747E-09  9.45812698E-05  2.31660898E-14  2.65946620E-08
  9.72868603E-08  5.63238128E-03  7.70375996E-13 -1.20940942E-23  2.01689394E-22
 -9.53346129E-38  3.13052893E-02 -3.45142463E-42  3.84740890E-22  4.14011847E-37
  3.47980844E-01 -6.46562091E-42 -2.47280365E-22  0.00000000E+00  1.00000000E+00
  1.51206917E-06  1.36766108E-05  2.09485606E-05  2.72171122E-10  4.28172887E-02
  2.39029627E-05  4.79070722E-05  6.22425656E-10  1.81691293E-01 -1.09786678E-12
 -2.65632850E-11 -3.70646112E-11  6.60660363E-17  1.76332764E-07 -4.80525280E-09
 -1.29967251E-08  2.31660898E-14  9.45812697E-05 -1.18147416E-07 -4.32199181E-07
  7.70375996E-13  5.63238128E-03  3.58675226E-23 -4.57495312E-22 -5.54222937E-38
 -3.45142463E-42  3.13052893E-02 -2.30411108E-21 -1.93489721E-36 -6.46562091E-42
  3.47980844E-01  5.28029955E-21  0.00000000E+00  0.00000000E+00  1.00000000E+00
  3.26722796E-02  2.03352527E-01  1.42290755E-01  1.84869190E-06 -1.24737643E-05
  3.98644569E-01  4.69799428E-01  6.10380062E-06 -4.11844560E-05  1.32414108E-04
  1.20878648E-03  6.81417923E-04 -1.21459742E-09  5.39587781E-09  1.07865969E-02
  1.56328407E-02 -2.78648497E-08  1.23790255E-07  4.71712162E-02  1.08285041E-01
 -1.93013314E-07  8.57466219E-07  9.13852373E-03 -6.26848320E-02  7.56478956E-17
  2.88573821E-22 -4.81355009E-23 -2.70736153E-01 -8.57795978E-17  3.28504536E-22
 -1.24112158E-21 -8.31044136E-01 -4.37030298E-16 -5.18711392E-22 -1.58290895E-22
  1.00000000E+00 -7.69833630E-02 -4.04263324E-01 -1.71972227E-01 -3.76643151E-06
  2.54134174E-05 -5.84297343E-01 -2.99242446E-01 -8.94640180E-06  6.03644703E-05
 -6.11657951E-04 -5.39297419E-03 -2.75272518E-03  5.43098470E-09 -2.41272782E-08
 -3.95415162E-02 -5.14758637E-02  1.03783441E-07 -4.61060393E-07 -1.23839834E-01
 -2.37534090E-01  5.06722928E-07 -2.25112861E-06  2.47092556E-18  4.16527492E-19
  6.01631012E-03  8.46470434E-38 -1.29724131E-38  9.27869240E-18  8.61656965E-02
  9.10142093E-38 -3.64056837E-37  2.69081200E-16  6.50297972E-01  1.63760870E-37
  0.00000000E+00  0.00000000E+00  1.00000000E+00 -1.00019513E-06 -5.25233234E-06
 -3.76643151E-06  1.17923770E-01  3.30180123E-10 -7.59139811E-06 -8.94640180E-06
  3.89347288E-01  7.84276586E-10  1.09025335E-09  9.61273885E-09  5.43098470E-09
  2.94185878E-04  4.30058102E-14  7.04810102E-08  1.03783441E-07  6.74910481E-03
  8.21819835E-13  2.20739047E-07  5.06722928E-07  4.67494746E-02  4.01253755E-12
  9.42583299E-24  1.58892629E-24  8.46470434E-38  6.01631012E-03 -4.94858287E-44
 -1.36541839E-22  9.10142093E-38  8.61656965E-02 -1.38876662E-42  3.38639082E-23
  1.63760870E-37  6.50297972E-01  1.77121336E-43  0.00000000E+00  0.00000000E+00
  1.00000000E+00  6.74866281E-06  3.54393047E-05  2.54134174E-05  3.30180123E-10
  1.17923768E-01  5.12217913E-05  6.03644703E-05  7.84276586E-10  3.89347283E-01
 -4.84347631E-09 -4.27048200E-08 -2.41272782E-08  4.30058102E-14  2.94185878E-04
 -3.13113557E-07 -4.61060393E-07  8.21819835E-13  6.74910480E-03 -9.80638445E-07
 -2.25112861E-06  4.01253755E-12  4.67494746E-02 -3.80206351E-23 -6.16772998E-25
 -1.29724131E-38 -4.94858287E-44  6.01631012E-03  5.37180020E-22 -3.64056837E-37
 -1.38876662E-42  8.61656965E-02  3.86229421E-22  0.00000000E+00  1.77121336E-43
  6.50297972E-01  0.00000000E+00  0.00000000E+00  0.00000000E+00  1.00000000E+00
  1.05580027E-11  1.23881156E-03  3.66877323E-03  5.18261327E-08 -3.49688860E-07
  2.41925701E-02  6.74624594E-02  9.19311993E-07 -6.20291629E-06  1.35156612E-97
  1.34815471E-33  1.08098427E-32 -1.95130854E-38  8.66873441E-38  5.31034528E-09
  3.03901078E-08 -5.62999334E-14  2.50113788E-13  2.36205523E-04  1.18209003E-03
 -2.18118455E-09  9.68996404E-09  3.16540131E-02 -4.18969036E-01 -7.54172419E-16
 -1.89553117E-21  7.65501108E-21 -7.17175239E-01 -1.31960496E-15  3.74113297E-22
  4.83005110E-21 -1.67280849E-01 -8.41917963E-17 -3.83781607E-22 -2.95968042E-22
  1.43851738E-01 -2.34555201E-17  0.00000000E+00  9.60214950E-24  1.00000000E+00
  3.35537237E-13  5.75887542E-04  1.86070031E-03  2.00147467E-08 -1.63116269E-07
  2.17198034E-02  6.35425181E-02  7.82751092E-07 -5.57038576E-06  0.00000000E+00
  2.13245502E-35  1.73159886E-34 -6.36327566E-41  1.37118434E-39  1.43448333E-09
  8.55150964E-09 -1.31117838E-14  6.77160074E-14  1.81097946E-04  9.38657520E-04
 -1.59895451E-09  7.43285598E-09  3.16540131E-02 -4.18969036E-01 -2.51390806E-16
 -5.68659351E-21  7.65501108E-21 -7.17175239E-01 -4.39868320E-16  1.12233989E-21
  4.83005110E-21 -1.67280849E-01 -2.80639321E-17 -1.15134482E-21 -2.95968042E-22
  1.43851738E-01 -7.81850671E-18  0.00000000E+00  9.60214950E-24  3.33333333E-01
  1.00000000E+00  3.35537314E-13  5.75887547E-04  1.86070032E-03  2.41748779E-08
 -1.35046427E-07  2.17198034E-02  6.35425182E-02  8.25566911E-07 -5.28149262E-06
  0.00000000E+00  2.13245503E-35  1.73159887E-34 -3.08649868E-40  2.82690033E-40
  1.43448333E-09  8.55150965E-09 -1.52426891E-14  5.82494099E-14  1.81097946E-04
  9.38657520E-04 -1.67311567E-09  7.10339329E-09  3.16540131E-02 -4.18969036E-01
 -2.51390806E-16 -1.89553117E-21  2.29650332E-20 -7.17175239E-01 -4.39868320E-16
  3.74113297E-22  1.44901533E-20 -1.67280849E-01 -2.80639321E-17 -3.83781607E-22
 -8.87904126E-22  1.43851738E-01 -7.81850671E-18  0.00000000E+00  2.88064485E-23
  3.33333333E-01  3.33333333E-01  1.00000000E+00  2.30040411E-16  1.49180561E-08
  4.42905995E-08 -2.77299939E-04 -4.19852096E-12  5.56457029E-08  1.25291662E-07
 -2.85395433E-03 -1.42340989E-11  0.00000000E+00 -4.09632837E-39 -3.30508670E-38
 -1.19044200E-34 -2.63396942E-43 -1.19659651E-14 -6.92678149E-14 -1.03532331E-09
 -5.63117440E-19 -1.70133857E-10 -8.15775678E-10 -3.60319959E-05 -6.96837928E-15
  7.44958431E-36 -1.37045922E-35 -3.28315629E-21 -4.35421649E-16  4.72148612E-55
 -2.32917056E-36  6.47983239E-22 -7.61874280E-16 -1.35493589E-55  0.00000000E+00
 -6.64729242E-22 -4.86081562E-17  0.00000000E+00  0.00000000E+00  0.00000000E+00
 -1.35420509E-17  0.00000000E+00  6.04683562E-36  6.04683562E-36  2.01561187E-36
  1.00000000E+00 -1.55216229E-15 -1.00657289E-07 -2.98844009E-07 -4.19852096E-12
 -2.77299911E-04 -3.75460823E-07 -8.45386219E-07 -1.42340989E-11 -2.85395424E-03
  0.00000000E+00  1.81980358E-38  1.46829260E-37 -2.63396942E-43 -1.19044199E-34
  5.31590832E-14  3.07723908E-13 -5.63117440E-19 -1.03532330E-09  7.55823690E-10
  3.62410277E-09 -6.96837928E-15 -3.60319959E-05 -4.20235943E-35 -7.26325656E-37
  1.32588681E-20  4.72148612E-55 -4.35421649E-16  2.16335340E-35  8.36589392E-21
 -1.35493589E-55 -7.61874280E-16  0.00000000E+00 -5.12631686E-22  0.00000000E+00
 -4.86081562E-17  0.00000000E+00  1.66314108E-23  0.00000000E+00 -1.35420509E-17
 -2.41873425E-35 -8.06244749E-36 -2.41873425E-35 -3.46198894E-40  1.00000000E+00
 -2.01662425E-20 -1.30777516E-12 -4.19852096E-12  2.43091977E-08 -3.60277870E-09
 -4.87812004E-12 -1.42340989E-11  2.50188803E-07 -3.70795846E-08  0.00000000E+00
 -3.24371969E-44 -2.63396942E-43 -9.42663727E-40  2.12191039E-40 -9.47537233E-20
 -5.63117440E-19 -8.19831394E-15  1.84541817E-15 -1.34722242E-15 -6.96837928E-15
 -2.85323060E-10  6.42254449E-11 -1.11318197E-40  7.70405913E-41  4.72148612E-55
  1.32588681E-20 -3.28315629E-21  2.92661662E-42 -1.35493589E-55  8.36589392E-21
  6.47983239E-22  0.00000000E+00  0.00000000E+00 -5.12631686E-22 -6.64729242E-22
  0.00000000E+00  0.00000000E+00  1.66314108E-23  0.00000000E+00 -1.99878025E-40
 -5.99634075E-40 -5.99634075E-40 -1.39645687E-35  3.49114217E-36  1.00000000E+00
  2.34775007E-06  1.38207854E-02  3.19485695E-02  4.82535337E-07 -3.25583298E-06
  8.05076969E-02  1.89872005E-01  2.86287837E-06 -1.93168315E-05  2.12968805E-34
  3.58582084E-20  1.75146030E-19 -3.18758255E-25  1.41609110E-24  3.61818367E-07
  1.76077377E-06 -3.31537967E-12  1.47286527E-11  1.28607206E-03  5.79952292E-03
 -1.12278862E-08  4.98801505E-08  8.33921374E-04 -4.84474790E-02  0.00000000E+00
 -3.10503889E-22  7.47598315E-22 -4.87138049E-01 -4.45959267E-16 -5.26829344E-22
  1.29546973E-22 -5.60245750E-01 -5.18228411E-16  7.22889812E-23  0.00000000E+00
  3.50670735E-01  3.08585590E-16  0.00000000E+00  0.00000000E+00  4.59265353E-01
  1.53088451E-01  1.53088451E-01  0.00000000E+00  0.00000000E+00  0.00000000E+00
  1.00000000E+00  4.18948968E-08  3.10682967E-03  8.31781551E-03  4.06198047E-08
 -7.29172253E-07  5.76376255E-02  1.57755213E-01  1.65361761E-06 -1.38294392E-05
  8.64827061E-38  2.89871246E-22  1.44563676E-21  3.99139002E-27  1.14474232E-26
  4.00984301E-08  2.06134746E-07 -1.90548089E-13  1.63229916E-12  6.24366269E-04
  3.05811160E-03 -4.56045700E-09  2.42159708E-08  8.33921374E-04 -4.84474790E-02
  0.00000000E+00 -9.31511667E-22  7.47598315E-22 -4.87138049E-01 -1.48653089E-16
 -1.58048803E-21  1.29546973E-22 -5.60245750E-01 -1.72742804E-16  2.16866944E-22
  0.00000000E+00  3.50670735E-01  1.02861863E-16  0.00000000E+00  0.00000000E+00
  1.53088451E-01  4.59265353E-01  1.53088451E-01  0.00000000E+00  0.00000000E+00
  0.00000000E+00  3.33333333E-01  1.00000000E+00  4.18949141E-08  3.10682975E-03
  8.31781573E-03  1.08068009E-07 -2.74075904E-07  5.76376257E-02  1.57755213E-01
  2.04961163E-06 -1.11575306E-05  8.64827188E-38  2.89871248E-22  1.44563677E-21
 -2.57678384E-27 -1.77318446E-26  4.00984302E-08  2.06134746E-07 -3.67426102E-13
  8.46514399E-13  6.24366270E-04  3.05811160E-03 -5.45094918E-09  2.02599383E-08
  8.33921374E-04 -4.84474790E-02  0.00000000E+00 -3.10503889E-22  2.24279494E-21
 -4.87138049E-01 -1.48653089E-16 -5.26829344E-22  3.88640920E-22 -5.60245750E-01
 -1.72742804E-16  7.22889812E-23  0.00000000E+00  3.50670735E-01  1.02861863E-16
  0.00000000E+00  0.00000000E+00  1.53088451E-01  1.53088451E-01  4.59265353E-01
  0.00000000E+00  0.00000000E+00  0.00000000E+00  3.33333333E-01  3.33333333E-01
  1.00000000E+00  5.18896223E-11  2.41100621E-07  5.90184586E-07 -4.49586384E-03
 -5.68585019E-11  5.14654771E-07  1.06567845E-06 -2.63955909E-02 -1.23485081E-10
 -6.57232498E-40 -1.09810278E-25 -5.41954168E-25 -3.19121796E-21 -4.33656238E-30
 -9.93247327E-13 -4.95282451E-12 -8.59380867E-08 -4.04324279E-17 -2.04288710E-09
 -9.23475964E-09 -4.32655208E-04 -7.92331308E-14 -6.26409402E-42  0.00000000E+00
 -5.37808511E-22  0.00000000E+00  0.00000000E+00  0.00000000E+00 -9.12495190E-22
 -2.57474703E-16  0.00000000E+00  1.58166282E-36  1.25208188E-22 -2.99199313E-16
  0.00000000E+00  0.00000000E+00  0.00000000E+00  1.78161974E-16  0.00000000E+00
  0.00000000E+00  0.00000000E+00  0.00000000E+00  4.59265353E-01  0.00000000E+00
  0.00000000E+00  0.00000000E+00  0.00000000E+00  0.00000000E+00  1.00000000E+00
 -3.50117246E-10 -1.62678936E-06 -3.98217973E-06 -5.68585019E-11 -4.49586346E-03
 -3.47255392E-06 -7.19050146E-06 -1.23485081E-10 -2.63955901E-02  2.91977094E-39
  4.87834762E-25  2.40764423E-24 -4.33656238E-30 -3.19121794E-21  4.41252477E-12
  2.20030402E-11 -4.04324279E-17 -8.59380865E-08  9.07557431E-09  4.10256384E-08
 -7.92331308E-14 -4.32655208E-04 -7.96213080E-40  0.00000000E+00  1.29487826E-21
  0.00000000E+00  0.00000000E+00 -2.55551170E-36  2.24381940E-22  0.00000000E+00
 -2.57474703E-16  0.00000000E+00  0.00000000E+00  0.00000000E+00 -2.99199313E-16
  0.00000000E+00  0.00000000E+00  0.00000000E+00  1.78161974E-16  0.00000000E+00
  0.00000000E+00  0.00000000E+00  0.00000000E+00  4.59265353E-01  0.00000000E+00
  0.00000000E+00  0.00000000E+00  0.00000000E+00  0.00000000E+00  1.00000000E+00
 -4.54884732E-15 -2.11358238E-11 -5.68585019E-11  3.94125015E-07 -5.84118511E-08
 -4.51166509E-11 -1.23485081E-10  2.31394078E-06 -3.42940859E-07 -5.20436304E-45
 -8.69543968E-31 -4.33656238E-30 -2.52699872E-26  5.68820537E-27 -7.86513097E-18
 -4.04324279E-17 -6.80509566E-13  1.53180852E-13 -1.61768113E-14 -7.92331308E-14
 -3.42602470E-09  7.71188843E-10  0.00000000E+00  2.09071003E-41  0.00000000E+00
  1.29487826E-21 -5.37808511E-22  0.00000000E+00  0.00000000E+00  2.24381940E-22
 -9.12495190E-22  0.00000000E+00  0.00000000E+00  0.00000000E+00  1.25208188E-22
  0.00000000E+00  0.00000000E+00  0.00000000E+00  0.00000000E+00  0.00000000E+00
  0.00000000E+00  0.00000000E+00  0.00000000E+00  0.00000000E+00  4.59265353E-01
  0.00000000E+00  0.00000000E+00  0.00000000E+00  0.00000000E+00  0.00000000E+00
  1.00000000E+00  3.00462315E-02  2.61650379E-01 -1.39335872E-06  3.23624108E-01
 -1.50930260E-01  3.69311061E-01 -2.00320003E-06  4.65266993E-01 -2.16988990E-01
  4.32848668E-06  1.47146008E-04  1.86053694E-04  1.05203776E-04 -4.90451705E-05
  1.61013712E-02  3.10018069E-02  1.75299242E-02 -8.17231237E-03  9.66676465E-02
  2.03412267E-01  1.15019154E-01 -5.36210224E-02  3.40096558E-07 -3.34185439E-06
 -2.10534489E-06  1.09478260E-06 -5.10407659E-07 -1.16467581E-04 -1.96514225E-04
  1.02187701E-04 -4.76417739E-05 -1.99381676E-02 -4.21659698E-02  2.19263696E-02
 -1.02224742E-02  1.01026832E-01 -2.10626024E-01  1.09525859E-01 -5.10629570E-02
  3.13190339E-05  1.72128668E-05  1.31212330E-05 -1.74136744E-05  8.11857326E-06
 -4.22167067E-06  7.86860497E-04  3.15581213E-04  1.78881977E-04 -5.81781287E-04
  2.71237069E-04 -1.41043696E-04  1.00000000E+00  9.00438907E-02  4.67383320E-01
 -1.03516588E-06  2.40429567E-01 -1.12130389E-01  6.95750278E-01 -2.28501782E-06
  5.30722522E-01 -2.47515826E-01  3.00605158E-03  2.52880698E-02  9.98906101E-03
  5.64829923E-03 -2.63319255E-03  1.41585162E-01  1.38805679E-01  7.84874583E-02
 -3.65902339E-02  3.04218805E-01  4.09719996E-01  2.31675543E-01 -1.08005311E-01
  7.02249186E-04 -4.92240709E-03 -8.37949141E-04  4.35734851E-04 -2.03147551E-04
 -2.46097152E-02 -1.35418761E-02  7.04179652E-03 -3.28301423E-03 -1.45036951E-01