
Running Job 1 of 2 input
qchem input_10206.0 /aimm/scratch/qchem10206/ 0
/home/epif/aimm/qcprog.exe_s input_10206.0 /aimm/scratch/qchem10206/
8388608
                  Welcome to Q-Chem
     A Quantum Leap Into The Future Of Chemistry


 Q-Chem 6.0, Q-Chem, Inc., Pleasanton, CA (2022)

 E. Epifanovsky,  A. T. B. Gilbert,  Xintian Feng,  Joonho Lee,  Yuezhi Mao,  
 N. Mardirossian,  P. Pokhilko,  A. White,  M. Wormit,  M. P. Coons,  
 A. L. Dempwolff,  Zhengting Gan,  D. Hait,  P. R. Horn,  L. D. Jacobson,  
 I. Kaliman,  J. Kussmann,  A. W. Lange,  Ka Un Lao,  D. S. Levine,  Jie Liu,  
 S. C. McKenzie,  A. F. Morrison,  K. Nanda,  F. Plasser,  D. R. Rehn,  
 M. L. Vidal,  Zhi-Qiang You,  Ying Zhu,  B. Alam,  B. Albrecht,  
 A. Aldossary,  E. Alguire,  J. H. Andersen,  V. Athavale,  D. Barton,  
 K. Begam,  A. Behn,  N. Bellonzi,  Y. A. Bernard,  E. J. Berquist,  
 H. Burton,  A. Carreras,  K. Carter-Fenk,  Romit Chakraborty,  
 Chandrima Chakravarty,  Junhan Chen,  A. D. Chien,  K. D. Closser,  
 V. Cofer-Shabica,  L. Cunha,  S. Dasgupta,  Jia Deng,  M. de Wergifosse,  
 M. Diedenhofen,  Hainam Do,  S. Ehlert,  Po-Tung Fang,  S. Fatehi,  
 Qingguo Feng,  T. Friedhoff,  B. Ganoe,  J. Gayvert,  Qinghui Ge,  
 G. Gidofalvi,  M. Goldey,  J. Gomes,  C. Gonzalez-Espinoza,  S. Gulania,  
 A. Gunina,  J. A. Gyamfi,  M. W. D. Hanson-Heine,  P. H. P. Harbach,  
 A. W. Hauser,  M. F. Herbst,  M. Hernandez Vera,  M. Hodecker,  
 Z. C. Holden,  S. Houck,  Xunkun Huang,  Kerwin Hui,  B. C. Huynh,  
 K. Ikeda,  M. Ivanov,  Hyunjun Ji,  Zuxin Jin,  Hanjie Jiang,  B. Kaduk,  
 S. Kaehler,  R. Kang,  K. Khistyaev,  Jaehoon Kim,  Yongbin Kim,  
 P. Klunzinger,  Z. Koczor-Benda,  Joong Hoon Koh,  D. Kosenkov,  
 Saikiran Kotaru,  L. Koulias,  T. Kowalczyk,  C. M. Krauter,  K. Kue,  
 A. Kunitsa,  T. Kus,  A. Landau,  K. V. Lawler,  D. Lefrancois,  S. Lehtola,  
 Rain Li,  Shaozhi Li,  Yi-Pei Li,  Jiashu Liang,  M. Liebenthal,  
 Hung-Hsuan Lin,  You-Sheng Lin,  Fenglai Liu,  Kuan-Yu Liu,  
 M. Loipersberger,  A. Luenser,  C. Malbon,  A. Manjanath,  P. Manohar,  
 E. Mansoor,  S. F. Manzer,  Shan-Ping Mao,  A. V. Marenich,  T. Markovich,  
 S. Mason,  F. Matz,  S. A. Maurer,  P. F. McLaughlin,  M. F. S. J. Menger,  
 J.-M. Mewes,  S. A. Mewes,  P. Morgante,  Mohammad Mostafanejad,  
 J. W. Mullinax,  K. J. Oosterbaan,  G. Paran,  V. Parravicini,  
 Alexander C. Paul,  Suranjan K. Paul,  F. Pavosevic,  Zheng Pei,  S. Prager,  
 E. I. Proynov,  E. Ramos,  B. Rana,  A. E. Rask,  A. Rettig,  R. M. Richard,  
 F. Rob,  E. Rossomme,  T. Scheele,  M. Scheurer,  M. Schneider,  
 P. E. Schneider,  N. Sergueev,  S. M. Sharada,  Hengyuan Shen,  
 W. Skomorowski,  D. W. Small,  C. J. Stein,  Yingli Su,  Yu-Chuan Su,  
 E. J. Sundstrom,  Zhen Tao,  J. Thirman,  Hung-Yi Tsai,  T. Tsuchimochi,  
 N. M. Tubman,  C. Utku,  S. P. Veccham,  O. Vydrov,  J. Wenzel,  
 Jonathan Wong,  J. Witte,  A. Yamada,  Chou-Hsun Yang,  Kun Yao,  
 S. Yeganeh,  S. R. Yost,  A. Zech,  F. Zeller,  Igor Ying Zhang,  
 Xing Zhang,  Yu Zhang,  D. Zuev,  A. Aspuru-Guzik,  A. T. Bell,  
 N. A. Besley,  K. B. Bravaya,  B. R. Brooks,  D. Casanova,  Jeng-Da Chai,  
 Hsing-Ta Chen,  S. Coriani,  C. J. Cramer,  A. E. DePrince, III,  
 R. A. DiStasio Jr.,  A. Dreuw,  B. D. Dunietz,  T. R. Furlani,  
 W. A. Goddard III,  S. Grimme,  S. Hammes-Schiffer,  T. Head-Gordon,  
 W. J. Hehre,  Chao-Ping Hsu,  T.-C. Jagau,  Yousung Jung,  A. Klamt,  
 Jing Kong,  D. S. Lambrecht,  Xiangyuan Li,  WanZhen Liang,  N. J. Mayhall,  
 C. W. McCurdy,  J. B. Neaton,  T. Neudecker,  C. Ochsenfeld,  
 J. A. Parkhill,  R. Peverati,  V. A. Rassolov,  Haisheng Ren,  Yihan Shao,  
 L. V. Slipchenko,  R. P. Steele,  J. E. Subotnik,  A. J. W. Thom,  
 A. Tkatchenko,  D. G. Truhlar,  T. Van Voorhis,  Fan Wang,  
 T. A. Wesolowski,  K. B. Whaley,  H. L. Woodcock III,  P. M. Zimmerman,  
 S. Faraji,  P. M. W. Gill,  M. Head-Gordon,  J. M. Herbert,  A. I. Krylov

 Contributors to earlier versions of Q-Chem not listed above: 
 R. D. Adamson,  B. Austin,  R. Baer,  J. Baker,  G. J. O. Beran,  
 K. Brandhorst,  S. T. Brown,  E. F. C. Byrd,  Arup K. Chakraborty,  
 G. K. L. Chan,  Chun-Min Chang,  Yunqing Chen,  C.-L. Cheng,  
 Siu Hung Chien,  D. M. Chipman,  D. L. Crittenden,  H. Dachsel,  
 R. J. Doerksen,  A. D. Dutoi,  R. G. Edgar,  J. Fosso-Tande,  
 L. Fusti-Molnar,  D. Ghosh,  A. Ghysels,  A. Golubeva-Zadorozhnaya,  
 J. Gonthier,  M. S. Gordon,  S. R. Gwaltney,  G. Hawkins,  J. E. Herr,  
 A. Heyden,  S. Hirata,  E. G. Hohenstein,  G. Kedziora,  F. J. Keil,  
 C. Kelley,  Jihan Kim,  R. A. King,  R. Z. Khaliullin,  P. P. Korambath,  
 W. Kurlancheek,  A. Laurent,  A. M. Lee,  M. S. Lee,  S. V. Levchenko,  
 Ching Yeh Lin,  D. Liotard,  E. Livshits,  R. C. Lochan,  I. Lotan,  
 L. A. Martinez-Martinez,  P. E. Maslen,  N. Nair,  D. P. O'Neill,  
 D. Neuhauser,  E. Neuscamman,  C. M. Oana,  R. Olivares-Amaya,  R. Olson,  
 T. M. Perrine,  B. Peters,  P. A. Pieniazek,  A. Prociuk,  Y. M. Rhee,  
 J. Ritchie,  M. A. Rohrdanz,  E. Rosta,  N. J. Russ,  H. F. Schaefer III,  
 M. W. Schmidt,  N. E. Schultz,  S. Sharma,  N. Shenvi,  C. D. Sherrill,  
 A. C. Simmonett,  A. Sodt,  T. Stein,  D. Stuck,  K. S. Thanthiriwatte,  
 V. Vanovschi,  L. Vogt,  Tao Wang,  A. Warshel,  M. A. Watson,  
 C. F. Williams,  Q. Wu,  X. Xu,  Jun Yang,  W. Zhang,  Yan Zhao

   Please cite Q-Chem as follows:
  "Software for the frontiers of quantum chemistry:
   An overview of developments in the Q-Chem 5 package"
   J. Chem. Phys. 155, 084801 (2021)
   https://doi.org/10.1063/5.0055522 (open access)

 Q-Chem 6.0.0 for Intel X86 EM64T Linux

 Parts of Q-Chem use Armadillo 9.900.5 (Nocturnal Misbehaviour).
 http://arma.sourceforge.net/

 Q-Chem begins on Wed Feb  8 13:08:21 2023  

 Host: iqmol
0

     Scratch files written to /aimm/scratch/qchem10206//
 Jul222 |scratch|qcdevops|jenkins|workspace|build_RNUM 6466   
 Processing $rem in /opt/qchem/qc600/config/preferences:
 Processing $rem in /home/epif/.qchemrc:

 Checking the input file for inconsistencies... 	...done.

--------------------------------------------------------------
User input:
--------------------------------------------------------------
$molecule
0 2
C   -0.5723350    0.5147275    0.7148580
Cl    1.2006585    0.5468418    0.5854017
Br   -2.5002592    0.4796239    0.8559726
H   -0.5106301    1.0410241    1.6894817
H   -0.5546742   -0.5940343    0.6807325
H   -0.6516332    1.0972264   -0.2260007
$end

$rem
BASIS  =  6-31G
GUI  =  2
JOB_TYPE  =  Frequency
METHOD  =  HF
SCF_CONVERGENCE  =  8
$end


--------------------------------------------------------------
 ----------------------------------------------------------------
             Standard Nuclear Orientation (Angstroms)
    I     Atom           X                Y                Z
 ----------------------------------------------------------------
    1      C      -0.6138174298    -0.0000202058     0.0001476971
    2      Cl     -2.3918208528     0.0000115290    -0.0000511815
    3      Br      1.3195830163     0.0000049136    -0.0000217923
    4      H      -0.6138217585     1.0053783903    -0.4687452816
    5      H      -0.6138317684    -0.9090411988    -0.6358633223
    6      H      -0.6138929661    -0.0965839260     1.1053552381
 ----------------------------------------------------------------
 Molecular Point Group                 C1    NOp =  1
 Largest Abelian Subgroup              C1    NOp =  1
 Nuclear Repulsion Energy =         219.88744747 hartrees
 There are       31 alpha and       30 beta electrons
 Requested basis set is 6-31G
 There are 20 shells and 57 basis functions

 Total QAlloc Memory Limit   8000 MB
 Mega-Array Size       188 MB
 MEM_STATIC part       192 MB


                       Distance Matrix (Angstroms)
             C (  1)   Cl(  2)   Br(  3)   H (  4)   H (  5)
   Cl(  2)  1.778003
   Br(  3)  1.933400  3.711404
   H (  4)  1.109363  2.095642  2.229020
   H (  5)  1.109427  2.095681  2.229070  1.921700
   H (  6)  1.109418  2.095777  2.229241  1.921487  1.921439
 
 A cutoff of  1.0D-12 yielded    197 shell pairs
 There are      1626 function pairs
 Smallest overlap matrix eigenvalue = 1.13E-03
 Guess from superposition of atomic densities
 Warning:  Energy on first SCF cycle will be non-variational
 SAD guess density has 61.009036 electrons

 -----------------------------------------------------------------------
  General SCF calculation program by
  Eric Jon Sundstrom, Paul Horn, Yuezhi Mao, Dmitri Zuev, Alec White,
  David Stuck, Shaama M.S., Shane Yost, Joonho Lee, David Small,
  Daniel Levine, Susi Lehtola, Hugh Burton, Evgeny Epifanovsky,
  Bang C. Huynh
 -----------------------------------------------------------------------
 Hartree-Fock
 A unrestricted SCF calculation will be
 performed using DIIS
 SCF converges when DIIS error is below 1.0e-08
 ---------------------------------------
  Cycle       Energy         DIIS error
 ---------------------------------------
    1   -3072.9722510693      2.98e-01  
    2   -3070.8711534194      4.57e-03  
    3   -3070.9162983715      2.27e-03  
    4   -3070.9252692547      5.33e-04  
    5   -3070.9267740249      2.48e-04  
    6   -3070.9272205378      9.02e-05  
    7   -3070.9272792220      3.66e-05  
    8   -3070.9272893229      1.38e-05  
    9   -3070.9272908071      3.97e-06  
   10   -3070.9272909543      1.09e-06  
   11   -3070.9272909644      5.17e-07  
   12   -3070.9272909660      2.62e-07  
   13   -3070.9272909668      1.08e-07  
   14   -3070.9272909670      2.73e-08  
   15   -3070.9272909670      4.66e-09  Convergence criterion met
 ---------------------------------------
 SCF time:   CPU 2.97s  wall 3.00s 
<S^2> =          0.796826484
 SCF   energy in the final basis set =    -3070.9272909670
 Total energy in the final basis set =    -3070.9272909670
 
 --------------------------------------------------------------
 
                    Orbital Energies (a.u.)
 --------------------------------------------------------------
 
 Alpha MOs
 -- Occupied --
********-104.8192 -65.1616 -58.5270 -58.5207 -58.5207 -11.3239 -10.5645
 -9.8362  -8.0427  -8.0264  -8.0264  -7.4595  -7.4383  -7.4383  -3.1715
 -3.1661  -3.1661  -3.1504  -3.1504  -1.2122  -1.0954  -0.9047  -0.7072
 -0.7072  -0.6168  -0.4748  -0.4748  -0.4163  -0.4163  -0.3728
 -- Virtual --
  0.1591   0.2309   0.2437   0.2437   0.4031   0.4855   0.4887   0.4887
  0.6041   0.6454   0.6454   0.7375   0.7503   0.7503   1.1117   1.1457
  1.1458   1.1646   1.4166   3.7896   4.4094   4.4094   4.4218   4.4218
  4.5006  69.5445
 
 Beta MOs
 -- Occupied --
********-104.8124 -65.1596 -58.5195 -58.5195 -58.5184 -11.3308 -10.5574
 -9.8293  -8.0223  -8.0223  -8.0162  -7.4389  -7.4355  -7.4355  -3.1637
 -3.1597  -3.1597  -3.1492  -3.1492  -1.1856  -1.0447  -0.8597  -0.6937
 -0.6936  -0.5386  -0.4593  -0.4593  -0.3979  -0.3979
 -- Virtual --
 -0.0232   0.1652   0.2474   0.2474   0.2494   0.4155   0.4958   0.4958
  0.5246   0.6386   0.6526   0.6526   0.7506   0.7506   0.7665   1.1230
  1.1561   1.1607   1.1609   1.4268   3.8028   4.4265   4.4265   4.4343
  4.4343   4.5275  69.5500
 --------------------------------------------------------------
 
          Ground-State Mulliken Net Atomic Charges

     Atom                 Charge (a.u.)    Spin (a.u.)
  --------------------------------------------------------
      1 C                    -1.045885      -0.352516
      2 Cl                    0.025188       0.451698
      3 Br                    0.086887       0.604237
      4 H                     0.311281       0.098895
      5 H                     0.311272       0.098894
      6 H                     0.311257       0.098791
  --------------------------------------------------------
  Sum of atomic charges =     0.000000
  Sum of spin   charges =     1.000000

 -----------------------------------------------------------------
                    Cartesian Multipole Moments
 -----------------------------------------------------------------
    Charge (ESU x 10^10)
                -0.0000
    Dipole Moment (Debye)
         X       0.2359      Y      -0.0001      Z       0.0004
       Tot       0.2359
    Quadrupole Moments (Debye-Ang)
        XX     -47.4509     XY       0.0001     YY     -38.2290
        XZ      -0.0004     YZ      -0.0000     ZZ     -38.2303
    Octopole Moments (Debye-Ang^2)
       XXX      50.6554    XXY      -0.0000    XYY       9.4519
       YYY       0.3843    XXZ       0.0002    XYZ       0.0000
       YYZ      -1.4379    XZZ       9.4525    YZZ      -0.3846
       ZZZ       1.4388
    Hexadecapole Moments (Debye-Ang^3)
      XXXX    -715.4407   XXXY       0.0002   XXYY    -130.8670
      XYYY      -0.2299   YYYY     -50.2437   XXXZ      -0.0007
      XXYZ      -0.0001   XYYZ       0.8608   YYYZ       0.0003
      XXZZ    -130.8668   XYZZ       0.2304   YYZZ     -16.7486
      XZZZ      -0.8628   YZZZ      -0.0005   ZZZZ     -50.2432
 -----------------------------------------------------------------
 Calculating MO derivatives via CPSCF
    1     0    21    0.0584326  
    2     0    21    0.0440526  
    3     0    21    0.0124706  
    4     0    21    0.0020764  
    5     0    21    0.0004463  
    6     0    21    0.0000702  
    7     8    13    0.0000115  
    8    20     1    0.0000020  
    9    21     0    0.0000002  Converged
 ------------------------------------------------------------------------------
                     AOints        : Timing summary (seconds)
 ------------------------------------------------------------------------------
     job step          cpu (% of tot)      sys (% of tot)     wall (% of tot)
 ------------------------------------------------------------------------------
  AOints            0.4340E+00 ( 8.6)   0.0000E+00 ( 0.0)   0.4340E+00 ( 8.6)
 ------------------------------------------------------------------------------
   Grand Totals     0.5065E+01          0.2000E-05          0.5060E+01
 ------------------------------------------------------------------------------
 Polarizability Matrix (a.u.)
            1           2           3
    1 -69.3693261   0.0001467  -0.0011532
    2   0.0001467 -19.8658530  -0.0001732
    3  -0.0011532  -0.0001732 -19.8645344
 Calculating analytic Hessian of the SCF energy
 
 Direct stationary perturbation theory relativistic correction:
 
 rels  =      17.882609497150
 relv  =     -59.188173280780
 rel2e =       8.491576738434
 E_rel =     -32.813987045196
 
 **********************************************************************
 **                                                                  **
 **                       VIBRATIONAL ANALYSIS                       **
 **                       --------------------                       **
 **                                                                  **
 **        VIBRATIONAL FREQUENCIES (CM**-1) AND NORMAL MODES         **
 **     FORCE CONSTANTS (mDYN/ANGSTROM) AND REDUCED MASSES (AMU)     **
 **                  INFRARED INTENSITIES (KM/MOL)                   **
 **                                                                  **
 **********************************************************************
 

 Mode:                 1                      2                      3
 Frequency:      -672.36                -374.30                -374.27
 Force Cnst:      2.1951                 0.3230                 0.3230
 Red. Mass:       8.2415                 3.9131                 3.9137
 IR Active:          YES                    YES                    YES
 IR Intens:       77.297                  7.551                  7.551
 Raman Active:       YES                    YES                    YES
               X      Y      Z        X      Y      Z        X      Y      Z
 C          0.776  0.000 -0.000    0.000  0.191  0.425   -0.000  0.425 -0.191
 Cl        -0.098 -0.000 -0.000    0.000 -0.043 -0.096   -0.000 -0.096  0.043
 Br        -0.061 -0.000  0.000   -0.000 -0.018 -0.040    0.000 -0.040  0.018
 H         -0.358  0.016 -0.007    0.001  0.233  0.513   -0.060  0.401 -0.178
 H         -0.358 -0.014 -0.010    0.052  0.143  0.452    0.031  0.462 -0.268
 H         -0.357 -0.001  0.017   -0.053  0.240  0.405    0.029  0.508 -0.170
 TransDip  -0.282  0.000 -0.000    0.000  0.036  0.080    0.000  0.080 -0.036

 Mode:                 4                      5                      6
 Frequency:       444.83                1515.83                1516.17
 Force Cnst:      3.6706                 1.5256                 1.5262
 Red. Mass:      31.4837                 1.1269                 1.1268
 IR Active:          YES                    YES                    YES
 IR Intens:        0.271                  9.080                  9.080
 Raman Active:       YES                    YES                    YES
               X      Y      Z        X      Y      Z        X      Y      Z
 C          0.125  0.000 -0.000   -0.000 -0.010 -0.103    0.000 -0.103  0.010
 Cl         0.762 -0.000  0.000   -0.000  0.000  0.003    0.000  0.003 -0.000
 Br        -0.368 -0.000  0.000    0.000  0.000  0.001   -0.000  0.001 -0.000
 H          0.297  0.024 -0.012    0.001  0.359  0.667   -0.004  0.002  0.293
 H          0.297 -0.022 -0.016    0.003 -0.418  0.451    0.003  0.219 -0.483
 H          0.297 -0.002  0.026   -0.004  0.158 -0.114    0.001  0.783  0.092
 TransDip  -0.017  0.000 -0.000   -0.000  0.009  0.096    0.000  0.096 -0.009

 Mode:                 7                      8                      9
 Frequency:      1700.24                1723.11                1723.14
 Force Cnst:      1.8567                 1.7751                 1.7751
 Red. Mass:       1.0901                 1.0147                 1.0147
 IR Active:          YES                    YES                    YES
 IR Intens:      117.184                  0.082                  0.083
 Raman Active:       YES                    YES                    YES
               X      Y      Z        X      Y      Z        X      Y      Z
 C          0.047  0.000 -0.000   -0.000 -0.004  0.007    0.000 -0.007 -0.004
 Cl        -0.036 -0.000  0.000   -0.000  0.006 -0.010   -0.000  0.010  0.006
 Br        -0.013  0.000 -0.000   -0.000 -0.002  0.004   -0.000 -0.004 -0.002
 H          0.577 -0.020  0.009   -0.663  0.014  0.001   -0.475  0.004 -0.012
 H          0.575  0.018  0.013   -0.079 -0.008  0.008    0.813  0.012  0.010
 H          0.575  0.002 -0.022    0.744 -0.003 -0.014   -0.337 -0.011  0.005
 TransDip   0.347 -0.000  0.000    0.000  0.005 -0.008    0.000  0.008  0.005

 Mode:                10                     11                     12
 Frequency:      2811.81                2960.57                2960.96
 Force Cnst:      4.6955                 5.7834                 5.7850
 Red. Mass:       1.0080                 1.1199                 1.1199
 IR Active:          YES                    YES                    YES
 IR Intens:        0.528                 27.348                 27.379
 Raman Active:       YES                    YES                    YES
               X      Y      Z        X      Y      Z        X      Y      Z
 C         -0.001  0.000 -0.000    0.000 -0.055 -0.085   -0.000 -0.085  0.055
 Cl        -0.002  0.000  0.000   -0.000 -0.001 -0.001   -0.000 -0.001  0.001
 Br         0.000  0.000  0.000   -0.000 -0.000 -0.000    0.000 -0.000  0.000
 H          0.021  0.522 -0.243    0.003  0.111 -0.022    0.022  0.728 -0.344
 H          0.021 -0.474 -0.331   -0.021  0.609  0.439   -0.008  0.265  0.155
 H          0.021 -0.050  0.575    0.018 -0.039  0.641   -0.014  0.065 -0.493
 TransDip  -0.023 -0.000 -0.000   -0.000  0.091  0.141   -0.000  0.141 -0.091

 STANDARD THERMODYNAMIC QUANTITIES AT   298.15 K  AND     1.00 ATM

   This Molecule has  3 Imaginary Frequencies
   Zero point vibrational energy:       24.813 kcal/mol

   Atom    1 Element C  Has Mass   12.00000
   Atom    2 Element Cl Has Mass   34.96885
   Atom    3 Element Br Has Mass   78.91830
   Atom    4 Element H  Has Mass    1.00783
   Atom    5 Element H  Has Mass    1.00783
   Atom    6 Element H  Has Mass    1.00783
   Molecular Mass:   128.910640 amu
   Principal axes and moments of inertia in amu*Bohr^2:
                             1           2           3
    Eigenvalues --       13.28877  1228.46257  1228.46478
          X               1.00000     0.00000    -0.00000
          Y              -0.00000     1.00000     0.00005
          Z               0.00000    -0.00005     1.00000
   Rotational Symmetry Number is   1
   The Molecule is an Asymmetric Top
   Translational Enthalpy:        0.889 kcal/mol
   Rotational Enthalpy:           0.889 kcal/mol
   Vibrational Enthalpy:         24.990 kcal/mol
   gas constant (RT):             0.592 kcal/mol
   Translational Entropy:        40.475  cal/mol.K
   Rotational Entropy:           24.509  cal/mol.K
   Vibrational Entropy:           0.848  cal/mol.K

   Total Enthalpy:               27.360 kcal/mol
   Total Entropy:                65.832  cal/mol.K
 Total job time:  12.14s(wall), 12.15s(cpu) 
 Wed Feb  8 13:08:33 2023

        *************************************************************
        *                                                           *
        *  Thank you very much for using Q-Chem.  Have a nice day.  *
        *                                                           *
        *************************************************************



Running Job 2 of 2 input
qchem input_10206.1 /aimm/scratch/qchem10206/ 0
/home/epif/aimm/qcprog.exe_s input_10206.1 /aimm/scratch/qchem10206/
8388608
                  Welcome to Q-Chem
     A Quantum Leap Into The Future Of Chemistry


 Q-Chem 6.0, Q-Chem, Inc., Pleasanton, CA (2022)

 E. Epifanovsky,  A. T. B. Gilbert,  Xintian Feng,  Joonho Lee,  Yuezhi Mao,  
 N. Mardirossian,  P. Pokhilko,  A. White,  M. Wormit,  M. P. Coons,  
 A. L. Dempwolff,  Zhengting Gan,  D. Hait,  P. R. Horn,  L. D. Jacobson,  
 I. Kaliman,  J. Kussmann,  A. W. Lange,  Ka Un Lao,  D. S. Levine,  Jie Liu,  
 S. C. McKenzie,  A. F. Morrison,  K. Nanda,  F. Plasser,  D. R. Rehn,  
 M. L. Vidal,  Zhi-Qiang You,  Ying Zhu,  B. Alam,  B. Albrecht,  
 A. Aldossary,  E. Alguire,  J. H. Andersen,  V. Athavale,  D. Barton,  
 K. Begam,  A. Behn,  N. Bellonzi,  Y. A. Bernard,  E. J. Berquist,  
 H. Burton,  A. Carreras,  K. Carter-Fenk,  Romit Chakraborty,  
 Chandrima Chakravarty,  Junhan Chen,  A. D. Chien,  K. D. Closser,  
 V. Cofer-Shabica,  L. Cunha,  S. Dasgupta,  Jia Deng,  M. de Wergifosse,  
 M. Diedenhofen,  Hainam Do,  S. Ehlert,  Po-Tung Fang,  S. Fatehi,  
 Qingguo Feng,  T. Friedhoff,  B. Ganoe,  J. Gayvert,  Qinghui Ge,  
 G. Gidofalvi,  M. Goldey,  J. Gomes,  C. Gonzalez-Espinoza,  S. Gulania,  
 A. Gunina,  J. A. Gyamfi,  M. W. D. Hanson-Heine,  P. H. P. Harbach,  
 A. W. Hauser,  M. F. Herbst,  M. Hernandez Vera,  M. Hodecker,  
 Z. C. Holden,  S. Houck,  Xunkun Huang,  Kerwin Hui,  B. C. Huynh,  
 K. Ikeda,  M. Ivanov,  Hyunjun Ji,  Zuxin Jin,  Hanjie Jiang,  B. Kaduk,  
 S. Kaehler,  R. Kang,  K. Khistyaev,  Jaehoon Kim,  Yongbin Kim,  
 P. Klunzinger,  Z. Koczor-Benda,  Joong Hoon Koh,  D. Kosenkov,  
 Saikiran Kotaru,  L. Koulias,  T. Kowalczyk,  C. M. Krauter,  K. Kue,  
 A. Kunitsa,  T. Kus,  A. Landau,  K. V. Lawler,  D. Lefrancois,  S. Lehtola,  
 Rain Li,  Shaozhi Li,  Yi-Pei Li,  Jiashu Liang,  M. Liebenthal,  
 Hung-Hsuan Lin,  You-Sheng Lin,  Fenglai Liu,  Kuan-Yu Liu,  
 M. Loipersberger,  A. Luenser,  C. Malbon,  A. Manjanath,  P. Manohar,  
 E. Mansoor,  S. F. Manzer,  Shan-Ping Mao,  A. V. Marenich,  T. Markovich,  
 S. Mason,  F. Matz,  S. A. Maurer,  P. F. McLaughlin,  M. F. S. J. Menger,  
 J.-M. Mewes,  S. A. Mewes,  P. Morgante,  Mohammad Mostafanejad,  
 J. W. Mullinax,  K. J. Oosterbaan,  G. Paran,  V. Parravicini,  
 Alexander C. Paul,  Suranjan K. Paul,  F. Pavosevic,  Zheng Pei,  S. Prager,  
 E. I. Proynov,  E. Ramos,  B. Rana,  A. E. Rask,  A. Rettig,  R. M. Richard,  
 F. Rob,  E. Rossomme,  T. Scheele,  M. Scheurer,  M. Schneider,  
 P. E. Schneider,  N. Sergueev,  S. M. Sharada,  Hengyuan Shen,  
 W. Skomorowski,  D. W. Small,  C. J. Stein,  Yingli Su,  Yu-Chuan Su,  
 E. J. Sundstrom,  Zhen Tao,  J. Thirman,  Hung-Yi Tsai,  T. Tsuchimochi,  
 N. M. Tubman,  C. Utku,  S. P. Veccham,  O. Vydrov,  J. Wenzel,  
 Jonathan Wong,  J. Witte,  A. Yamada,  Chou-Hsun Yang,  Kun Yao,  
 S. Yeganeh,  S. R. Yost,  A. Zech,  F. Zeller,  Igor Ying Zhang,  
 Xing Zhang,  Yu Zhang,  D. Zuev,  A. Aspuru-Guzik,  A. T. Bell,  
 N. A. Besley,  K. B. Bravaya,  B. R. Brooks,  D. Casanova,  Jeng-Da Chai,  
 Hsing-Ta Chen,  S. Coriani,  C. J. Cramer,  A. E. DePrince, III,  
 R. A. DiStasio Jr.,  A. Dreuw,  B. D. Dunietz,  T. R. Furlani,  
 W. A. Goddard III,  S. Grimme,  S. Hammes-Schiffer,  T. Head-Gordon,  
 W. J. Hehre,  Chao-Ping Hsu,  T.-C. Jagau,  Yousung Jung,  A. Klamt,  
 Jing Kong,  D. S. Lambrecht,  Xiangyuan Li,  WanZhen Liang,  N. J. Mayhall,  
 C. W. McCurdy,  J. B. Neaton,  T. Neudecker,  C. Ochsenfeld,  
 J. A. Parkhill,  R. Peverati,  V. A. Rassolov,  Haisheng Ren,  Yihan Shao,  
 L. V. Slipchenko,  R. P. Steele,  J. E. Subotnik,  A. J. W. Thom,  
 A. Tkatchenko,  D. G. Truhlar,  T. Van Voorhis,  Fan Wang,  
 T. A. Wesolowski,  K. B. Whaley,  H. L. Woodcock III,  P. M. Zimmerman,  
 S. Faraji,  P. M. W. Gill,  M. Head-Gordon,  J. M. Herbert,  A. I. Krylov

 Contributors to earlier versions of Q-Chem not listed above: 
 R. D. Adamson,  B. Austin,  R. Baer,  J. Baker,  G. J. O. Beran,  
 K. Brandhorst,  S. T. Brown,  E. F. C. Byrd,  Arup K. Chakraborty,  
 G. K. L. Chan,  Chun-Min Chang,  Yunqing Chen,  C.-L. Cheng,  
 Siu Hung Chien,  D. M. Chipman,  D. L. Crittenden,  H. Dachsel,  
 R. J. Doerksen,  A. D. Dutoi,  R. G. Edgar,  J. Fosso-Tande,  
 L. Fusti-Molnar,  D. Ghosh,  A. Ghysels,  A. Golubeva-Zadorozhnaya,  
 J. Gonthier,  M. S. Gordon,  S. R. Gwaltney,  G. Hawkins,  J. E. Herr,  
 A. Heyden,  S. Hirata,  E. G. Hohenstein,  G. Kedziora,  F. J. Keil,  
 C. Kelley,  Jihan Kim,  R. A. King,  R. Z. Khaliullin,  P. P. Korambath,  
 W. Kurlancheek,  A. Laurent,  A. M. Lee,  M. S. Lee,  S. V. Levchenko,  
 Ching Yeh Lin,  D. Liotard,  E. Livshits,  R. C. Lochan,  I. Lotan,  
 L. A. Martinez-Martinez,  P. E. Maslen,  N. Nair,  D. P. O'Neill,  
 D. Neuhauser,  E. Neuscamman,  C. M. Oana,  R. Olivares-Amaya,  R. Olson,  
 T. M. Perrine,  B. Peters,  P. A. Pieniazek,  A. Prociuk,  Y. M. Rhee,  
 J. Ritchie,  M. A. Rohrdanz,  E. Rosta,  N. J. Russ,  H. F. Schaefer III,  
 M. W. Schmidt,  N. E. Schultz,  S. Sharma,  N. Shenvi,  C. D. Sherrill,  
 A. C. Simmonett,  A. Sodt,  T. Stein,  D. Stuck,  K. S. Thanthiriwatte,  
 V. Vanovschi,  L. Vogt,  Tao Wang,  A. Warshel,  M. A. Watson,  
 C. F. Williams,  Q. Wu,  X. Xu,  Jun Yang,  W. Zhang,  Yan Zhao

   Please cite Q-Chem as follows:
  "Software for the frontiers of quantum chemistry:
   An overview of developments in the Q-Chem 5 package"
   J. Chem. Phys. 155, 084801 (2021)
   https://doi.org/10.1063/5.0055522 (open access)

 Q-Chem 6.0.0 for Intel X86 EM64T Linux

 Parts of Q-Chem use Armadillo 9.900.5 (Nocturnal Misbehaviour).
 http://arma.sourceforge.net/

 Q-Chem begins on Wed Feb  8 13:08:33 2023  

 Host: iqmol
0

     Scratch files written to /aimm/scratch/qchem10206//
 Jul222 |scratch|qcdevops|jenkins|workspace|build_RNUM 6466   
 Processing $rem in /opt/qchem/qc600/config/preferences:
 Processing $rem in /home/epif/.qchemrc:

 Checking the input file for inconsistencies... 	...done.

--------------------------------------------------------------
User input:
--------------------------------------------------------------

$molecule
read
$end

$rem
BASIS  =  6-31G
GEOM_OPT_HESSIAN  =  Read
GUI  =  2
JOB_TYPE  =  TS
METHOD  =  HF
SCF_CONVERGENCE  =  8
$end

--------------------------------------------------------------
 ----------------------------------------------------------------
             Standard Nuclear Orientation (Angstroms)
    I     Atom           X                Y                Z
 ----------------------------------------------------------------
    1      C      -0.6138174298    -0.0000202058     0.0001476971
    2      Cl     -2.3918208528     0.0000115290    -0.0000511815
    3      Br      1.3195830163     0.0000049136    -0.0000217923
    4      H      -0.6138217585     1.0053783903    -0.4687452815
    5      H      -0.6138317684    -0.9090411988    -0.6358633224
    6      H      -0.6138929661    -0.0965839260     1.1053552381
 ----------------------------------------------------------------
 Molecular Point Group                 C1    NOp =  1
 Largest Abelian Subgroup              C1    NOp =  1
 Nuclear Repulsion Energy =         219.88744747 hartrees
 There are       31 alpha and       30 beta electrons
 Requested basis set is 6-31G
 There are 20 shells and 57 basis functions

 Total QAlloc Memory Limit   8000 MB
 Mega-Array Size       188 MB
 MEM_STATIC part       192 MB

 A cutoff of  1.0D-12 yielded    197 shell pairs
 There are      1626 function pairs
 Smallest overlap matrix eigenvalue = 1.13E-03

 Scale SEOQF with 1.000000e-01/1.000000e+00/1.000000e+00

 Standard Electronic Orientation quadrupole field applied
 Nucleus-field energy     =     0.0000000051 hartrees
 Guess from superposition of atomic densities
 Warning:  Energy on first SCF cycle will be non-variational
 SAD guess density has 61.009036 electrons

 -----------------------------------------------------------------------
  General SCF calculation program by
  Eric Jon Sundstrom, Paul Horn, Yuezhi Mao, Dmitri Zuev, Alec White,
  David Stuck, Shaama M.S., Shane Yost, Joonho Lee, David Small,
  Daniel Levine, Susi Lehtola, Hugh Burton, Evgeny Epifanovsky,
  Bang C. Huynh
 -----------------------------------------------------------------------
 Hartree-Fock
 A unrestricted SCF calculation will be
 performed using DIIS
 SCF converges when DIIS error is below 1.0e-08
 ---------------------------------------
  Cycle       Energy         DIIS error
 ---------------------------------------
    1   -3072.9722510666      2.98e-01  
    2   -3070.8711534170      4.57e-03  
    3   -3070.9162983691      2.27e-03  
    4   -3070.9252692522      5.33e-04  
    5   -3070.9267740224      2.48e-04  
    6   -3070.9272205353      9.02e-05  
    7   -3070.9272792195      3.66e-05  
    8   -3070.9272893204      1.38e-05  
    9   -3070.9272908046      3.97e-06  
   10   -3070.9272909518      1.09e-06  
   11   -3070.9272909619      5.17e-07  
   12   -3070.9272909635      2.62e-07  
   13   -3070.9272909643      1.08e-07  
   14   -3070.9272909645      2.73e-08  
   15   -3070.9272909645      4.66e-09  Convergence criterion met
 ---------------------------------------
 SCF time:   CPU 2.96s  wall 3.00s 
<S^2> =          0.796826484
 SCF   energy in the final basis set =    -3070.9272909645
 Total energy in the final basis set =    -3070.9272909645
 
 --------------------------------------------------------------
 
                    Orbital Energies (a.u.)
 --------------------------------------------------------------
 
 Alpha MOs
 -- Occupied --
********-104.8192 -65.1616 -58.5270 -58.5207 -58.5207 -11.3239 -10.5645
 -9.8362  -8.0427  -8.0264  -8.0264  -7.4595  -7.4383  -7.4383  -3.1715
 -3.1661  -3.1661  -3.1504  -3.1504  -1.2122  -1.0954  -0.9047  -0.7072
 -0.7072  -0.6168  -0.4748  -0.4748  -0.4163  -0.4163  -0.3728
 -- Virtual --
  0.1591   0.2309   0.2437   0.2437   0.4031   0.4855   0.4887   0.4887
  0.6041   0.6454   0.6454   0.7375   0.7503   0.7503   1.1117   1.1457
  1.1458   1.1646   1.4166   3.7896   4.4094   4.4094   4.4218   4.4218
  4.5006  69.5445
 
 Beta MOs
 -- Occupied --
********-104.8124 -65.1596 -58.5195 -58.5195 -58.5184 -11.3308 -10.5574
 -9.8293  -8.0223  -8.0223  -8.0162  -7.4389  -7.4355  -7.4355  -3.1637
 -3.1597  -3.1597  -3.1492  -3.1492  -1.1856  -1.0447  -0.8597  -0.6937
 -0.6936  -0.5386  -0.4593  -0.4593  -0.3979  -0.3979
 -- Virtual --
 -0.0232   0.1652   0.2474   0.2474   0.2494   0.4155   0.4958   0.4958
  0.5246   0.6386   0.6526   0.6526   0.7506   0.7506   0.7665   1.1230
  1.1561   1.1607   1.1609   1.4268   3.8028   4.4265   4.4265   4.4343
  4.4343   4.5275  69.5500
 --------------------------------------------------------------
 
          Ground-State Mulliken Net Atomic Charges

     Atom                 Charge (a.u.)    Spin (a.u.)
  --------------------------------------------------------
      1 C                    -1.045885      -0.352516
      2 Cl                    0.025188       0.451698
      3 Br                    0.086887       0.604237
      4 H                     0.311281       0.098895
      5 H                     0.311272       0.098894
      6 H                     0.311257       0.098791
  --------------------------------------------------------
  Sum of atomic charges =     0.000000
  Sum of spin   charges =     1.000000

 -----------------------------------------------------------------
                    Cartesian Multipole Moments
 -----------------------------------------------------------------
    Charge (ESU x 10^10)
                -0.0000
    Dipole Moment (Debye)
         X       0.2359      Y      -0.0001      Z       0.0004
       Tot       0.2359
    Quadrupole Moments (Debye-Ang)
        XX     -47.4509     XY       0.0001     YY     -38.2290
        XZ      -0.0004     YZ      -0.0000     ZZ     -38.2303
    Octopole Moments (Debye-Ang^2)
       XXX      50.6554    XXY      -0.0000    XYY       9.4519
       YYY       0.3843    XXZ       0.0002    XYZ       0.0000
       YYZ      -1.4379    XZZ       9.4525    YZZ      -0.3846
       ZZZ       1.4388
    Hexadecapole Moments (Debye-Ang^3)
      XXXX    -715.4407   XXXY       0.0002   XXYY    -130.8670
      XYYY      -0.2299   YYYY     -50.2437   XXXZ      -0.0007
      XXYZ      -0.0001   XYYZ       0.8608   YYYZ       0.0003
      XXZZ    -130.8668   XYZZ       0.2304   YYZZ     -16.7486
      XZZZ      -0.8628   YZZZ      -0.0005   ZZZZ     -50.2432
 -----------------------------------------------------------------
 Calculating analytic gradient of the SCF energy
 Gradient of SCF Energy
            1           2           3           4           5           6
    1   0.0179385   0.1752803  -0.1683320  -0.0082938  -0.0082940  -0.0082991
    2   0.0000559  -0.0000045  -0.0000025   0.0252333  -0.0228488  -0.0024334
    3  -0.0000769   0.0000204   0.0000121  -0.0117568  -0.0159649   0.0277662
 Max gradient component =       1.753E-01
 RMS gradient           =       5.865E-02
 Gradient time:  CPU 0.82 s  wall 0.82 s
 Geometry Optimization Parameters
   NAtoms,    NIC,     NZ,  NCons,   NDum,   NFix, NCnnct, MaxDiis
        6      27       0       0       0       0       0       0

 Cartesian Hessian read from HESS file


** GEOMETRY OPTIMIZATION IN DELOCALIZED INTERNAL COORDINATES **
   Searching for a Transition State

   Optimization Cycle:   1

                       Coordinates (Angstroms)
     ATOM                X               Y               Z
      1  C        -0.6138174298   -0.0000202058    0.0001476971
      2  Cl       -2.3918208528    0.0000115290   -0.0000511815
      3  Br        1.3195830163    0.0000049136   -0.0000217923
      4  H        -0.6138217585    1.0053783903   -0.4687452815
      5  H        -0.6138317684   -0.9090411988   -0.6358633224
      6  H        -0.6138929661   -0.0965839260    1.1053552381
   Point Group: c1    Number of degrees of freedom:    12


   Energy is  -3070.927290965


 Attempting to generate delocalized internal coordinates

  ***ERROR*** Angle     2    1    3   is near-linear
              But No atom available to define colinear bend
**WARNING** Problems with Internal Coordinates
  Switching to Cartesian Coordinates

 Translations and Rotations Projected Out of Hessian

 12 Hessian modes will be used to form the next step
  Hessian Eigenvalues:
    -0.179501   -0.049739   -0.049732    0.119456    0.119479    0.130092
     0.130104    0.296608    0.317044    0.388914    0.782812    0.783050
**WARNING** Hessian does not have the desired local structure
**WARNING** Hessian does not have the desired local structure

 Transition state search - taking P-RFO step
 Searching for Lamda that Maximizes Along the Lowest mode
 Value Taken    Lamda =   0.00408552
 Searching for Lamda that Minimizes Along All other modes
 Value Taken    Lamda =  -0.12571721
 Calculated Step too Large.  Step scaled by  0.564373
 Step Taken.  Stepsize is  0.300000

                             Maximum     Tolerance    Cnvgd?
         Gradient           0.175280      0.000300      NO
         Displacement       0.208550      0.001200      NO
         Energy change     *********      0.000001      NO

 ----------------------------------------------------------------
             Standard Nuclear Orientation (Angstroms)
    I     Atom           X                Y                Z
 ----------------------------------------------------------------
    1      C      -0.5691890796    -0.0000454731     0.0001700014
    2      Cl     -2.5021806813     0.0000191096    -0.0000519261
    3      Br      1.4155214542     0.0000078527    -0.0000076835
    4      H      -0.6239025645     0.9849448442    -0.4592429556
    5      H      -0.6239058285    -0.8905560271    -0.6229634180
    6      H      -0.6239450595    -0.0946208041     1.0829173392
 ----------------------------------------------------------------
 Molecular Point Group                 C1    NOp =  1
 Largest Abelian Subgroup              C1    NOp =  1
 Nuclear Repulsion Energy =         210.35990749 hartrees
 There are       31 alpha and       30 beta electrons
 Applying Cartesian multipole field
    Component          Value
    ---------          -----
     (2,0,0)        1.00000E-11
     (0,2,0)        2.00000E-10
     (0,0,2)       -3.00000E-10
 Nucleus-field energy     =     0.0000000058 hartrees
 Requested basis set is 6-31G
 There are 20 shells and 57 basis functions
 A cutoff of  1.0D-12 yielded    197 shell pairs
 There are      1626 function pairs
 Smallest overlap matrix eigenvalue = 1.14E-03
 Guess MOs from SCF MO coefficient file

 -----------------------------------------------------------------------
  General SCF calculation program by
  Eric Jon Sundstrom, Paul Horn, Yuezhi Mao, Dmitri Zuev, Alec White,
  David Stuck, Shaama M.S., Shane Yost, Joonho Lee, David Small,
  Daniel Levine, Susi Lehtola, Hugh Burton, Evgeny Epifanovsky,
  Bang C. Huynh
 -----------------------------------------------------------------------
 Hartree-Fock
 A unrestricted SCF calculation will be
 performed using DIIS
 SCF converges when DIIS error is below 1.0e-08
 ---------------------------------------
  Cycle       Energy         DIIS error
 ---------------------------------------
    1   -3070.9734272465      1.59e-03  
    2   -3070.9815197238      5.13e-04  
    3   -3070.9831015325      2.41e-04  
    4   -3070.9834899096      1.40e-04  
    5   -3070.9837649925      5.79e-05  
    6   -3070.9838166147      1.81e-05  
    7   -3070.9838205530      5.82e-06  
    8   -3070.9838207822      2.68e-06  
    9   -3070.9838208313      9.55e-07  
   10   -3070.9838208378      2.87e-07  
   11   -3070.9838208382      1.01e-07  
   12   -3070.9838208383      4.53e-08  
   13   -3070.9838208383      1.65e-08  
   14   -3070.9838208383      4.05e-09  Convergence criterion met
 ---------------------------------------
 SCF time:   CPU 2.71s  wall 3.00s 
<S^2> =          0.818173087
 SCF   energy in the final basis set =    -3070.9838208383
 Total energy in the final basis set =    -3070.9838208383
 
 --------------------------------------------------------------
 
                    Orbital Energies (a.u.)
 --------------------------------------------------------------
 
 Alpha MOs
 -- Occupied --
********-104.8321 -65.1609 -58.5259 -58.5203 -58.5203 -11.3183 -10.5738
 -9.8342  -8.0551  -8.0354  -8.0354  -7.4561  -7.4370  -7.4370  -3.1691
 -3.1642  -3.1642  -3.1495  -3.1495  -1.1793  -1.0834  -0.9204  -0.6916
 -0.6915  -0.6016  -0.4798  -0.4798  -0.4216  -0.4216  -0.4030
 -- Virtual --
  0.1702   0.2058   0.2594   0.2594   0.4072   0.4765   0.4917   0.4917
  0.5722   0.6402   0.6403   0.7392   0.7398   0.7398   1.1417   1.1624
  1.1737   1.1737   1.3788   3.7772   4.4118   4.4118   4.4234   4.4234
  4.4960  69.4288
 
 Beta MOs
 -- Occupied --
********-104.8233 -65.1593 -58.5193 -58.5193 -58.5186 -11.3245 -10.5648
 -9.8286  -8.0303  -8.0303  -8.0201  -7.4386  -7.4348  -7.4348  -3.1625
 -3.1588  -3.1588  -3.1486  -3.1486  -1.1453  -1.0314  -0.8779  -0.6819
 -0.6819  -0.5112  -0.4600  -0.4600  -0.4057  -0.4057
 -- Virtual --
 -0.0410   0.1731   0.2193   0.2607   0.2607   0.4171   0.4971   0.4971
  0.5114   0.6122   0.6486   0.6487   0.7413   0.7413   0.7721   1.1342
  1.1645   1.1837   1.1837   1.3901   3.7880   4.4269   4.4269   4.4330
  4.4330   4.5190  69.4332
 --------------------------------------------------------------
 
          Ground-State Mulliken Net Atomic Charges

     Atom                 Charge (a.u.)    Spin (a.u.)
  --------------------------------------------------------
      1 C                    -0.979742      -0.384414
      2 Cl                   -0.014296       0.633776
      3 Br                    0.062504       0.531296
      4 H                     0.310521       0.073142
      5 H                     0.310515       0.073129
      6 H                     0.310498       0.073070
  --------------------------------------------------------
  Sum of atomic charges =     0.000000
  Sum of spin   charges =     1.000000

 -----------------------------------------------------------------
                    Cartesian Multipole Moments
 -----------------------------------------------------------------
    Charge (ESU x 10^10)
                 0.0000
    Dipole Moment (Debye)
         X      -0.0411      Y      -0.0001      Z       0.0004
       Tot       0.0411
    Quadrupole Moments (Debye-Ang)
        XX     -46.2468     XY       0.0001     YY     -38.4187
        XZ      -0.0005     YZ      -0.0000     ZZ     -38.4197
    Octopole Moments (Debye-Ang^2)
       XXX      45.4241    XXY       0.0000    XYY       8.9490
       YYY       0.3580    XXZ      -0.0007    XYZ       0.0000
       YYZ      -1.3404    XZZ       8.9496    YZZ      -0.3585
       ZZZ       1.3396
    Hexadecapole Moments (Debye-Ang^3)
      XXXX    -767.0715   XXXY       0.0007   XXYY    -142.3334
      XYYY      -0.2145   YYYY     -50.2328   XXXZ      -0.0025
      XXYZ      -0.0000   XYYZ       0.8041   YYYZ       0.0003
      XXZZ    -142.3333   XYZZ       0.2155   YYZZ     -16.7449
      XZZZ      -0.8079   YZZZ      -0.0004   ZZZZ     -50.2323
 -----------------------------------------------------------------
 Calculating analytic gradient of the SCF energy
 Gradient of SCF Energy
            1           2           3           4           5           6
    1  -0.0079204   0.1196508  -0.1024806  -0.0030808  -0.0030818  -0.0030872
    2   0.0000249  -0.0000033  -0.0000018   0.0146056  -0.0132183  -0.0014071
    3  -0.0000404   0.0000116   0.0000045  -0.0068014  -0.0092321   0.0160578
 Max gradient component =       1.197E-01
 RMS gradient           =       3.778E-02
 Gradient time:  CPU 0.81 s  wall 0.81 s
 Geometry Optimization Parameters
   NAtoms,    NIC,     NZ,  NCons,   NDum,   NFix, NCnnct, MaxDiis
        6      27       0       0       0       0       0       0

 Cartesian Hessian Update
 Hessian updated using Powell/Murtagh-Sargent update
  Mixing factors:     0.378310 Powell                      0.621690 Murtagh-Sargent


** GEOMETRY OPTIMIZATION IN CARTESIAN COORDINATES **
   Searching for a Transition State

   Optimization Cycle:   2

                       Coordinates (Angstroms)
     ATOM                X               Y               Z
      1  C        -0.5691890796   -0.0000454731    0.0001700014
      2  Cl       -2.5021806813    0.0000191096   -0.0000519261
      3  Br        1.4155214542    0.0000078527   -0.0000076835
      4  H        -0.6239025645    0.9849448442   -0.4592429556
      5  H        -0.6239058285   -0.8905560271   -0.6229634180
      6  H        -0.6239450595   -0.0946208041    1.0829173392
   Point Group: c1    Number of degrees of freedom:    12


   Energy is  -3070.983820838


 Translations and Rotations Projected Out of Hessian

 12 Hessian modes will be used to form the next step
  Hessian Eigenvalues:
    -0.219617   -0.049733   -0.049726    0.119735    0.119760    0.131177
     0.131189    0.297641    0.321016    0.335426    0.782532    0.782770
**WARNING** Hessian does not have the desired local structure
**WARNING** Hessian does not have the desired local structure

 Transition state search - taking P-RFO step
 Searching for Lamda that Maximizes Along the Lowest mode
 Value Taken    Lamda =   0.00132015
 Searching for Lamda that Minimizes Along All other modes
 Value Taken    Lamda =  -0.06548767
 Calculated Step too Large.  Step scaled by  0.716846
 Step Taken.  Stepsize is  0.300000

                             Maximum     Tolerance    Cnvgd?
         Gradient           0.119651      0.000300      NO
         Displacement       0.200887      0.001200      NO
         Energy change     -0.056530      0.000001      NO

 ----------------------------------------------------------------
             Standard Nuclear Orientation (Angstroms)
    I     Atom           X                Y                Z
 ----------------------------------------------------------------
    1      C      -0.6031983007    -0.0000606851     0.0001378907
    2      Cl     -2.6084855663     0.0000215503     0.0000442333
    3      Br      1.5210461675     0.0000121718     0.0000858133
    4      H      -0.6123034871     0.9667428281    -0.4508355293
    5      H      -0.6123128690    -0.8740935235    -0.6115368967
    6      H      -0.6123477038    -0.0928728392     1.0629258461
 ----------------------------------------------------------------
 Molecular Point Group                 C1    NOp =  1
 Largest Abelian Subgroup              C1    NOp =  1
 Nuclear Repulsion Energy =         200.48281924 hartrees
 There are       31 alpha and       30 beta electrons
 Applying Cartesian multipole field
    Component          Value
    ---------          -----
     (2,0,0)        1.00000E-11
     (0,2,0)        2.00000E-10
     (0,0,2)       -3.00000E-10
 Nucleus-field energy     =     0.0000000065 hartrees
 Requested basis set is 6-31G
 There are 20 shells and 57 basis functions
 A cutoff of  1.0D-12 yielded    196 shell pairs
 There are      1620 function pairs
 Smallest overlap matrix eigenvalue = 1.14E-03
 Guess MOs from SCF MO coefficient file

 -----------------------------------------------------------------------
  General SCF calculation program by
  Eric Jon Sundstrom, Paul Horn, Yuezhi Mao, Dmitri Zuev, Alec White,
  David Stuck, Shaama M.S., Shane Yost, Joonho Lee, David Small,
  Daniel Levine, Susi Lehtola, Hugh Burton, Evgeny Epifanovsky,
  Bang C. Huynh
 -----------------------------------------------------------------------
 Hartree-Fock
 A unrestricted SCF calculation will be
 performed using DIIS
 SCF converges when DIIS error is below 1.0e-08
 ---------------------------------------
  Cycle       Energy         DIIS error
 ---------------------------------------
    1   -3071.0140867011      1.24e-03  
    2   -3071.0186587521      3.77e-04  
    3   -3071.0194311909      1.60e-04  
    4   -3071.0196037695      9.21e-05  
    5   -3071.0197101221      4.43e-05  
    6   -3071.0197440960      1.72e-05  
    7   -3071.0197485103      7.60e-06  
    8   -3071.0197491109      2.78e-06  
    9   -3071.0197491916      9.39e-07  
   10   -3071.0197491993      2.94e-07  
   11   -3071.0197491999      1.35e-07  
   12   -3071.0197492000      4.72e-08  
   13   -3071.0197492001      1.57e-08  
   14   -3071.0197492001      3.82e-09  Convergence criterion met
 ---------------------------------------
 SCF time:   CPU 2.68s  wall 2.00s 
<S^2> =          0.852210253
 SCF   energy in the final basis set =    -3071.0197492001
 Total energy in the final basis set =    -3071.0197492001
 
 --------------------------------------------------------------
 
                    Orbital Energies (a.u.)
 --------------------------------------------------------------
 
 Alpha MOs
 -- Occupied --
********-104.8324 -65.1674 -58.5329 -58.5267 -58.5267 -11.3169 -10.5718
 -9.8405  -8.0523  -8.0341  -8.0341  -7.4634  -7.4430  -7.4430  -3.1754
 -3.1704  -3.1704  -3.1554  -3.1554  -1.1541  -1.0704  -0.9374  -0.6842
 -0.6841  -0.5839  -0.4759  -0.4759  -0.4326  -0.4326  -0.4263
 -- Virtual --
  0.1680   0.1984   0.2719   0.2719   0.4035   0.4660   0.4874   0.4874
  0.5678   0.6393   0.6393   0.7308   0.7308   0.7381   1.1199   1.1842
  1.2006   1.2006   1.3353   3.7588   4.4000   4.4000   4.4174   4.4174
  4.4735  69.3255
 
 Beta MOs
 -- Occupied --
********-104.8244 -65.1655 -58.5255 -58.5255 -58.5242 -11.3235 -10.5637
 -9.8339  -8.0294  -8.0294  -8.0199  -7.4425  -7.4404  -7.4404  -3.1675
 -3.1641  -3.1641  -3.1542  -3.1542  -1.1231  -1.0153  -0.8955  -0.6785
 -0.6785  -0.4902  -0.4568  -0.4568  -0.4143  -0.4143
 -- Virtual --
 -0.0577   0.1713   0.1997   0.2716   0.2716   0.4164   0.4935   0.4935
  0.5049   0.5996   0.6463   0.6463   0.7325   0.7325   0.7707   1.1034
  1.1898   1.2073   1.2073   1.3439   3.7718   4.4217   4.4217   4.4252
  4.4252   4.5014  69.3308
 --------------------------------------------------------------
 
          Ground-State Mulliken Net Atomic Charges

     Atom                 Charge (a.u.)    Spin (a.u.)
  --------------------------------------------------------
      1 C                    -0.875463      -0.444622
      2 Cl                   -0.054255       0.607193
      3 Br                    0.021845       0.656909
      4 H                     0.302631       0.060185
      5 H                     0.302625       0.060171
      6 H                     0.302618       0.060164
  --------------------------------------------------------
  Sum of atomic charges =     0.000000
  Sum of spin   charges =     1.000000

 -----------------------------------------------------------------
                    Cartesian Multipole Moments
 -----------------------------------------------------------------
    Charge (ESU x 10^10)
                 0.0000
    Dipole Moment (Debye)
         X       0.3705      Y      -0.0001      Z       0.0002
       Tot       0.3705
    Quadrupole Moments (Debye-Ang)
        XX     -46.2172     XY       0.0001     YY     -38.5894
        XZ      -0.0002     YZ      -0.0000     ZZ     -38.5899
    Octopole Moments (Debye-Ang^2)
       XXX      46.7600    XXY       0.0001    XYY       8.8020
       YYY       0.3279    XXZ      -0.0039    XYZ       0.0000
       YYZ      -1.2311    XZZ       8.8023    YZZ      -0.3285
       ZZZ       1.2187
    Hexadecapole Moments (Debye-Ang^3)
      XXXX    -841.3804   XXXY       0.0001   XXYY    -155.5761
      XYYY      -0.1959   YYYY     -50.2784   XXXZ       0.0010
      XXYZ       0.0000   XYYZ       0.7343   YYYZ       0.0003
      XXZZ    -155.5760   XYZZ       0.1966   YYZZ     -16.7600
      XZZZ      -0.7362   YZZZ      -0.0003   ZZZZ     -50.2780
 -----------------------------------------------------------------
 Calculating analytic gradient of the SCF energy
 Gradient of SCF Energy
            1           2           3           4           5           6
    1   0.0094084   0.0648727  -0.0661253  -0.0027177  -0.0027179  -0.0027202
    2   0.0000059  -0.0000012  -0.0000007   0.0005220  -0.0004727  -0.0000533
    3  -0.0000348   0.0000028   0.0000001  -0.0002349  -0.0003187   0.0005854
 Max gradient component =       6.613E-02
 RMS gradient           =       2.198E-02
 Gradient time:  CPU 0.80 s  wall 0.80 s
 Geometry Optimization Parameters
   NAtoms,    NIC,     NZ,  NCons,   NDum,   NFix, NCnnct, MaxDiis
        6      27       0       0       0       0       0       0

 Cartesian Hessian Update
 Hessian updated using Powell/Murtagh-Sargent update
  Mixing factors:     0.317728 Powell                      0.682272 Murtagh-Sargent


** GEOMETRY OPTIMIZATION IN CARTESIAN COORDINATES **
   Searching for a Transition State

   Optimization Cycle:   3

                       Coordinates (Angstroms)
     ATOM                X               Y               Z
      1  C        -0.6031983007   -0.0000606851    0.0001378907
      2  Cl       -2.6084855663    0.0000215503    0.0000442333
      3  Br        1.5210461675    0.0000121718    0.0000858133
      4  H        -0.6123034871    0.9667428281   -0.4508355293
      5  H        -0.6123128690   -0.8740935235   -0.6115368967
      6  H        -0.6123477038   -0.0928728392    1.0629258461
   Point Group: c1    Number of degrees of freedom:    12


   Energy is  -3071.019749200


 Translations and Rotations Projected Out of Hessian

 12 Hessian modes will be used to form the next step
  Hessian Eigenvalues:
    -0.233163   -0.049734   -0.049727    0.120069    0.120094    0.131852
     0.131864    0.212647    0.307141    0.325528    0.782794    0.783032
**WARNING** Hessian does not have the desired local structure
**WARNING** Hessian does not have the desired local structure

 Transition state search - taking P-RFO step
 Searching for Lamda that Maximizes Along the Lowest mode
 Value Taken    Lamda =   0.00061810
 Searching for Lamda that Minimizes Along All other modes
 Value Taken    Lamda =  -0.04973393
 Calculated Step too Large.  Step scaled by  0.000121
 Step Taken.  Stepsize is  0.300000

                             Maximum     Tolerance    Cnvgd?
         Gradient           0.066125      0.000300      NO
         Displacement       0.146721      0.001200      NO
         Energy change     -0.035928      0.000001      NO

 ----------------------------------------------------------------
             Standard Nuclear Orientation (Angstroms)
    I     Atom           X                Y                Z
 ----------------------------------------------------------------
    1      C      -0.6031899711     0.0419158595     0.0261275373
    2      Cl     -2.6085105356    -0.0774342389    -0.0479221776
    3      Br      1.5210697491    -0.0776293999    -0.0479952210
    4      H      -0.6165909442     1.0035117279    -0.4209191227
    5      H      -0.6045066385    -0.8415913730    -0.5922869298
    6      H      -0.6158734191    -0.0490230734     1.0838172714
 ----------------------------------------------------------------
 Molecular Point Group                 C1    NOp =  1
 Largest Abelian Subgroup              C1    NOp =  1
 Nuclear Repulsion Energy =         200.26032391 hartrees
 There are       31 alpha and       30 beta electrons
 Applying Cartesian multipole field
    Component          Value
    ---------          -----
     (2,0,0)        1.00000E-11
     (0,2,0)        2.00000E-10
     (0,0,2)       -3.00000E-10
 Nucleus-field energy     =     0.0000000066 hartrees
 Requested basis set is 6-31G
 There are 20 shells and 57 basis functions
 A cutoff of  1.0D-12 yielded    196 shell pairs
 There are      1620 function pairs
 Smallest overlap matrix eigenvalue = 1.14E-03
 Guess MOs from SCF MO coefficient file

 -----------------------------------------------------------------------
  General SCF calculation program by
  Eric Jon Sundstrom, Paul Horn, Yuezhi Mao, Dmitri Zuev, Alec White,
  David Stuck, Shaama M.S., Shane Yost, Joonho Lee, David Small,
  Daniel Levine, Susi Lehtola, Hugh Burton, Evgeny Epifanovsky,
  Bang C. Huynh
 -----------------------------------------------------------------------
 Hartree-Fock
 A unrestricted SCF calculation will be
 performed using DIIS
 SCF converges when DIIS error is below 1.0e-08
 ---------------------------------------
  Cycle       Energy         DIIS error
 ---------------------------------------
    1   -3071.0178656714      6.79e-04  
    2   -3071.0196907351      1.89e-04  
    3   -3071.0199259801      5.08e-05  
    4   -3071.0199445350      1.98e-05  
    5   -3071.0199466717      9.77e-06  
    6   -3071.0199478392      5.47e-06  
    7   -3071.0199484657      3.25e-06  
    8   -3071.0199487225      1.94e-06  
    9   -3071.0199488309      8.16e-07  
   10   -3071.0199488483      2.91e-07  
   11   -3071.0199488496      1.82e-07  
   12   -3071.0199488504      1.18e-07  
   13   -3071.0199488508      3.73e-08  
   14   -3071.0199488509      1.11e-08  
   15   -3071.0199488509      5.14e-09  Convergence criterion met
 ---------------------------------------
 SCF time:   CPU 2.96s  wall 3.00s 
<S^2> =          0.853668730
 SCF   energy in the final basis set =    -3071.0199488509
 Total energy in the final basis set =    -3071.0199488509
 
 --------------------------------------------------------------
 
                    Orbital Energies (a.u.)
 --------------------------------------------------------------
 
 Alpha MOs
 -- Occupied --
********-104.8323 -65.1675 -58.5330 -58.5268 -58.5268 -11.3178 -10.5717
 -9.8406  -8.0522  -8.0340  -8.0339  -7.4635  -7.4431  -7.4431  -3.1755
 -3.1705  -3.1705  -3.1555  -3.1555  -1.1534  -1.0701  -0.9380  -0.6861
 -0.6829  -0.5827  -0.4760  -0.4758  -0.4338  -0.4329  -0.4256
 -- Virtual --
  0.1664   0.1978   0.2717   0.2724   0.4036   0.4671   0.4864   0.4880
  0.5677   0.6367   0.6416   0.7257   0.7335   0.7389   1.1130   1.1777
  1.2000   1.2065   1.3326   3.7573   4.3996   4.4002   4.4171   4.4174
  4.4719  69.3175
 
 Beta MOs
 -- Occupied --
********-104.8243 -65.1656 -58.5256 -58.5256 -58.5243 -11.3244 -10.5636
 -9.8340  -8.0293  -8.0293  -8.0197  -7.4426  -7.4405  -7.4405  -3.1676
 -3.1642  -3.1641  -3.1544  -3.1544  -1.1224  -1.0150  -0.8965  -0.6795
 -0.6774  -0.4911  -0.4567  -0.4549  -0.4155  -0.4137
 -- Virtual --
 -0.0571   0.1694   0.1987   0.2716   0.2719   0.4166   0.4924   0.4934
  0.5065   0.5992   0.6435   0.6487   0.7293   0.7351   0.7699   1.0958
  1.1869   1.2057   1.2112   1.3412   3.7703   4.4214   4.4217   4.4250
  4.4255   4.4998  69.3228
 --------------------------------------------------------------
 
          Ground-State Mulliken Net Atomic Charges

     Atom                 Charge (a.u.)    Spin (a.u.)
  --------------------------------------------------------
      1 C                    -0.866111      -0.444100
      2 Cl                   -0.058775       0.606812
      3 Br                    0.018470       0.657665
      4 H                     0.299781       0.051808
      5 H                     0.306373       0.074825
      6 H                     0.300263       0.052990
  --------------------------------------------------------
  Sum of atomic charges =    -0.000000
  Sum of spin   charges =     1.000000

 -----------------------------------------------------------------
                    Cartesian Multipole Moments
 -----------------------------------------------------------------
    Charge (ESU x 10^10)
                 0.0000
    Dipole Moment (Debye)
         X       0.3809      Y       0.1529      Z       0.0950
       Tot       0.4213
    Quadrupole Moments (Debye-Ang)
        XX     -46.2722     XY      -0.1488     YY     -38.5891
        XZ      -0.0917     YZ       0.0428     ZZ     -38.6140
    Octopole Moments (Debye-Ang^2)
       XXX      46.8880    XXY       2.2382    XYY       8.8208
       YYY       7.2859    XXZ       1.3914    XYZ      -0.0164
       YYZ       0.2108    XZZ       8.8278    YZZ       1.9926
       ZZZ       5.5257
    Hexadecapole Moments (Debye-Ang^3)
      XXXX    -842.4581   XXXY      -1.4025   XXYY    -155.6926
      XYYY      -0.9994   YYYY     -51.5342   XXXZ      -0.8749
      XXYZ      -0.1042   XYYZ       0.5672   YYYZ      -0.4998
      XXZZ    -155.6118   XYZZ      -0.0715   YYZZ     -17.1202
      XZZZ      -1.2320   YZZZ      -0.3846   ZZZZ     -50.6905
 -----------------------------------------------------------------
 Calculating analytic gradient of the SCF energy
 Gradient of SCF Energy
            1           2           3           4           5           6
    1   0.0093472   0.0633892  -0.0648775  -0.0027123  -0.0024386  -0.0027080
    2   0.0099757   0.0010607   0.0009569  -0.0041888  -0.0068422  -0.0009622
    3   0.0059576   0.0006712   0.0006021   0.0007108  -0.0046470  -0.0032946
 Max gradient component =       6.488E-02
 RMS gradient           =       2.182E-02
 Gradient time:  CPU 0.81 s  wall 0.81 s
 Geometry Optimization Parameters
   NAtoms,    NIC,     NZ,  NCons,   NDum,   NFix, NCnnct, MaxDiis
        6      27       0       0       0       0       0       0

 Cartesian Hessian Update
 Hessian updated using Powell/Murtagh-Sargent update
  Mixing factors:     0.560718 Powell                      0.439282 Murtagh-Sargent


** GEOMETRY OPTIMIZATION IN CARTESIAN COORDINATES **
   Searching for a Transition State

   Optimization Cycle:   4

                       Coordinates (Angstroms)
     ATOM                X               Y               Z
      1  C        -0.6031899711    0.0419158595    0.0261275373
      2  Cl       -2.6085105356   -0.0774342389   -0.0479221776
      3  Br        1.5210697491   -0.0776293999   -0.0479952210
      4  H        -0.6165909442    1.0035117279   -0.4209191227
      5  H        -0.6045066385   -0.8415913730   -0.5922869298
      6  H        -0.6158734191   -0.0490230734    1.0838172714
   Point Group: c1    Number of degrees of freedom:    12


   Energy is  -3071.019948851


 Translations and Rotations Projected Out of Hessian

 12 Hessian modes will be used to form the next step
  Hessian Eigenvalues:
    -0.233113   -0.049278   -0.007575    0.120103    0.120140    0.131875
     0.131909    0.213047    0.307272    0.324780    0.782950    0.811107
**WARNING** Hessian does not have the desired local structure
**WARNING** Hessian does not have the desired local structure

 Transition state search - taking P-RFO step
 Searching for Lamda that Maximizes Along the Lowest mode
 Value Taken    Lamda =   0.00060701
 Searching for Lamda that Minimizes Along All other modes
 Value Taken    Lamda =  -0.04927785
 Calculated Step too Large.  Step scaled by  0.000413
 Step Taken.  Stepsize is  0.300000

                             Maximum     Tolerance    Cnvgd?
         Gradient           0.064877      0.000300      NO
         Displacement       0.146383      0.001200      NO
         Energy change     -0.000200      0.000001      NO

 ----------------------------------------------------------------
             Standard Nuclear Orientation (Angstroms)
    I     Atom           X                Y                Z
 ----------------------------------------------------------------
    1      C      -0.6031651355     0.0160824375     0.0679701721
    2      Cl     -2.6085624950    -0.0297820035    -0.1251571786
    3      Br      1.5211184156    -0.0298344598    -0.1254580027
    4      H      -0.6100775078     0.9836024218    -0.3893544151
    5      H      -0.6040640524    -0.8733422420    -0.5431259969
    6      H      -0.6228509842    -0.0669766517     1.1159467787
 ----------------------------------------------------------------
 Molecular Point Group                 C1    NOp =  1
 Largest Abelian Subgroup              C1    NOp =  1
 Nuclear Repulsion Energy =         200.03487734 hartrees
 There are       31 alpha and       30 beta electrons
 Applying Cartesian multipole field
    Component          Value
    ---------          -----
     (2,0,0)        1.00000E-11
     (0,2,0)        2.00000E-10
     (0,0,2)       -3.00000E-10
 Nucleus-field energy     =     0.0000000057 hartrees
 Requested basis set is 6-31G
 There are 20 shells and 57 basis functions
 A cutoff of  1.0D-12 yielded    196 shell pairs
 There are      1620 function pairs
 Smallest overlap matrix eigenvalue = 1.14E-03
 Guess MOs from SCF MO coefficient file

 -----------------------------------------------------------------------
  General SCF calculation program by
  Eric Jon Sundstrom, Paul Horn, Yuezhi Mao, Dmitri Zuev, Alec White,
  David Stuck, Shaama M.S., Shane Yost, Joonho Lee, David Small,
  Daniel Levine, Susi Lehtola, Hugh Burton, Evgeny Epifanovsky,
  Bang C. Huynh
 -----------------------------------------------------------------------
 Hartree-Fock
 A unrestricted SCF calculation will be
 performed using DIIS
 SCF converges when DIIS error is below 1.0e-08
 ---------------------------------------
  Cycle       Energy         DIIS error
 ---------------------------------------
    1   -3071.0181399194      6.62e-04  
    2   -3071.0198389154      1.81e-04  
    3   -3071.0200548367      5.07e-05  
    4   -3071.0200765050      2.36e-05  
    5   -3071.0200814880      1.53e-05  
    6   -3071.0200862537      9.78e-06  
    7   -3071.0200893739      4.48e-06  
    8   -3071.0200899048      2.09e-06  
    9   -3071.0200899894      7.92e-07  
   10   -3071.0200900007      3.59e-07  
   11   -3071.0200900028      2.36e-07  
   12   -3071.0200900041      1.31e-07  
   13   -3071.0200900047      3.12e-08  
   14   -3071.0200900047      1.05e-08  
   15   -3071.0200900047      5.55e-09  Convergence criterion met
 ---------------------------------------
 SCF time:   CPU 3.02s  wall 3.00s 
<S^2> =          0.855484796
 SCF   energy in the final basis set =    -3071.0200900047
 Total energy in the final basis set =    -3071.0200900047
 
 --------------------------------------------------------------
 
                    Orbital Energies (a.u.)
 --------------------------------------------------------------
 
 Alpha MOs
 -- Occupied --
********-104.8323 -65.1675 -58.5331 -58.5269 -58.5268 -11.3185 -10.5716
 -9.8406  -8.0521  -8.0339  -8.0339  -7.4635  -7.4432  -7.4431  -3.1755
 -3.1706  -3.1706  -3.1556  -3.1556  -1.1526  -1.0697  -0.9386  -0.6860
 -0.6833  -0.5817  -0.4761  -0.4758  -0.4354  -0.4323  -0.4253
 -- Virtual --
  0.1650   0.1973   0.2716   0.2729   0.4037   0.4681   0.4859   0.4882
  0.5675   0.6354   0.6426   0.7249   0.7295   0.7422   1.1065   1.1764
  1.1940   1.2127   1.3304   3.7559   4.3993   4.4005   4.4170   4.4174
  4.4704  69.3103
 
 Beta MOs
 -- Occupied --
********-104.8243 -65.1657 -58.5257 -58.5257 -58.5244 -11.3250 -10.5636
 -9.8341  -8.0293  -8.0293  -8.0197  -7.4426  -7.4405  -7.4405  -3.1676
 -3.1642  -3.1642  -3.1545  -3.1545  -1.1216  -1.0145  -0.8974  -0.6795
 -0.6772  -0.4911  -0.4567  -0.4539  -0.4161  -0.4135
 -- Virtual --
 -0.0567   0.1676   0.1978   0.2715   0.2722   0.4168   0.4909   0.4942
  0.5078   0.5987   0.6422   0.6498   0.7280   0.7357   0.7694   1.0886
  1.1857   1.2022   1.2152   1.3390   3.7690   4.4213   4.4217   4.4246
  4.4259   4.4983  69.3156
 --------------------------------------------------------------
 
          Ground-State Mulliken Net Atomic Charges

     Atom                 Charge (a.u.)    Spin (a.u.)
  --------------------------------------------------------
      1 C                    -0.857957      -0.445911
      2 Cl                   -0.062605       0.607395
      3 Br                    0.015321       0.658793
      4 H                     0.303585       0.062378
      5 H                     0.306370       0.074411
      6 H                     0.295285       0.042933
  --------------------------------------------------------
  Sum of atomic charges =     0.000000
  Sum of spin   charges =     1.000000

 -----------------------------------------------------------------
                    Cartesian Multipole Moments
 -----------------------------------------------------------------
    Charge (ESU x 10^10)
                 0.0000
    Dipole Moment (Debye)
         X       0.3870      Y       0.0594      Z       0.2496
       Tot       0.4643
    Quadrupole Moments (Debye-Ang)
        XX     -46.3076     XY      -0.0546     YY     -38.5438
        XZ      -0.2545     YZ       0.0275     ZZ     -38.6788
    Octopole Moments (Debye-Ang^2)
       XXX      46.9559    XXY       0.9060    XYY       8.7946
       YYY       2.9853    XXZ       3.4834    XYZ      -0.0083
       YYZ       2.5142    XZZ       8.8913    YZZ       0.5946
       ZZZ      12.4368
    Hexadecapole Moments (Debye-Ang^3)
      XXXX    -843.3142   XXXY      -0.5790   XXYY    -155.7052
      XYYY      -0.4890   YYYY     -50.5071   XXXZ      -2.1691
      XXYZ      -0.0875   XYYZ       0.3011   YYYZ      -0.4282
      XXZZ    -155.7165   XYZZ       0.0758   YYZZ     -17.4734
      XZZZ      -2.0517   YZZZ      -0.4284   ZZZZ     -53.3685
 -----------------------------------------------------------------
 Calculating analytic gradient of the SCF energy
 Gradient of SCF Energy
            1           2           3           4           5           6
    1   0.0092226   0.0620745  -0.0637623  -0.0025455  -0.0023385  -0.0026508
    2   0.0031097   0.0004366   0.0003817   0.0018999  -0.0063300   0.0005021
    3   0.0185692   0.0014785   0.0013502  -0.0033303  -0.0064719  -0.0115958
 Max gradient component =       6.376E-02
 RMS gradient           =       2.187E-02
 Gradient time:  CPU 0.82 s  wall 0.82 s
 Geometry Optimization Parameters
   NAtoms,    NIC,     NZ,  NCons,   NDum,   NFix, NCnnct, MaxDiis
        6      27       0       0       0       0       0       0

 Cartesian Hessian Update
 Hessian updated using Powell/Murtagh-Sargent update
  Mixing factors:     0.633701 Powell                      0.366299 Murtagh-Sargent


** GEOMETRY OPTIMIZATION IN CARTESIAN COORDINATES **
   Searching for a Transition State

   Optimization Cycle:   5

                       Coordinates (Angstroms)
     ATOM                X               Y               Z
      1  C        -0.6031651355    0.0160824375    0.0679701721
      2  Cl       -2.6085624950   -0.0297820035   -0.1251571786
      3  Br        1.5211184156   -0.0298344598   -0.1254580027
      4  H        -0.6100775078    0.9836024218   -0.3893544151
      5  H        -0.6040640524   -0.8733422420   -0.5431259969
      6  H        -0.6228509842   -0.0669766517    1.1159467787
   Point Group: c1    Number of degrees of freedom:    12


   Energy is  -3071.020090005


 Translations and Rotations Projected Out of Hessian

 12 Hessian modes will be used to form the next step
  Hessian Eigenvalues:
    -0.233063   -0.007685   -0.006941    0.120095    0.120163    0.131870
     0.131919    0.213317    0.307324    0.324031    0.810921    0.816872
**WARNING** Hessian does not have the desired local structure
**WARNING** Hessian does not have the desired local structure

 Transition state search - taking P-RFO step
 Searching for Lamda that Maximizes Along the Lowest mode
 Value Taken    Lamda =   0.00058949
 Searching for Lamda that Minimizes Along All other modes
 Value Taken    Lamda =  -0.03193471
 Calculated Step too Large.  Step scaled by  0.838642
 Step Taken.  Stepsize is  0.300000

                             Maximum     Tolerance    Cnvgd?
         Gradient           0.063762      0.000300      NO
         Displacement       0.211356      0.001200      NO
         Energy change     -0.000141      0.000001      NO

 ----------------------------------------------------------------
             Standard Nuclear Orientation (Angstroms)
    I     Atom           X                Y                Z
 ----------------------------------------------------------------
    1      C      -0.5803245785     0.0133384637     0.0589850755
    2      Cl     -2.7204075019    -0.0276055027    -0.1281909785
    3      Br      1.6291961750    -0.0273305526    -0.1276677409
    4      H      -0.6160693337     0.9868970395    -0.3912054015
    5      H      -0.6109227979    -0.8758636364    -0.5421036273
    6      H      -0.6290737223    -0.0696863092     1.1310040302
 ----------------------------------------------------------------
 Molecular Point Group                 C1    NOp =  1
 Largest Abelian Subgroup              C1    NOp =  1
 Nuclear Repulsion Energy =         190.99662095 hartrees
 There are       31 alpha and       30 beta electrons
 Applying Cartesian multipole field
    Component          Value
    ---------          -----
     (2,0,0)        1.00000E-11
     (0,2,0)        2.00000E-10
     (0,0,2)       -3.00000E-10
 Nucleus-field energy     =     0.0000000064 hartrees
 Requested basis set is 6-31G
 There are 20 shells and 57 basis functions
 A cutoff of  1.0D-12 yielded    196 shell pairs
 There are      1620 function pairs
 Smallest overlap matrix eigenvalue = 1.14E-03
 Guess MOs from SCF MO coefficient file

 -----------------------------------------------------------------------
  General SCF calculation program by
  Eric Jon Sundstrom, Paul Horn, Yuezhi Mao, Dmitri Zuev, Alec White,
  David Stuck, Shaama M.S., Shane Yost, Joonho Lee, David Small,
  Daniel Levine, Susi Lehtola, Hugh Burton, Evgeny Epifanovsky,
  Bang C. Huynh
 -----------------------------------------------------------------------
 Hartree-Fock
 A unrestricted SCF calculation will be
 performed using DIIS
 SCF converges when DIIS error is below 1.0e-08
 ---------------------------------------
  Cycle       Energy         DIIS error
 ---------------------------------------
    1   -3071.0357958434      1.03e-03  
    2   -3071.0389845311      3.50e-04  
    3   -3071.0394889729      1.70e-04  
    4   -3071.0396564976      8.23e-05  
    5   -3071.0397578381      4.12e-05  
    6   -3071.0397871338      1.96e-05  
    7   -3071.0397930649      9.43e-06  
    8   -3071.0397946968      4.76e-06  
    9   -3071.0397952478      2.67e-06  
   10   -3071.0397954241      1.57e-06  
   11   -3071.0397954981      8.01e-07  
   12   -3071.0397955162      3.11e-07  
   13   -3071.0397955184      1.77e-07  
   14   -3071.0397955190      9.54e-08  
   15   -3071.0397955193      5.41e-08  
   16   -3071.0397955194      3.17e-08  
   17   -3071.0397955194      1.08e-08  
   18   -3071.0397955194      2.83e-09  Convergence criterion met
 ---------------------------------------
 SCF time:   CPU 3.29s  wall 3.00s 
<S^2> =          0.903224306
 SCF   energy in the final basis set =    -3071.0397955194
 Total energy in the final basis set =    -3071.0397955194
 
 --------------------------------------------------------------
 
                    Orbital Energies (a.u.)
 --------------------------------------------------------------
 
 Alpha MOs
 -- Occupied --
********-104.8437 -65.1642 -58.5297 -58.5237 -58.5237 -11.3205 -10.5813
 -9.8367  -8.0636  -8.0435  -8.0435  -7.4590  -7.4396  -7.4395  -3.1714
 -3.1667  -3.1666  -3.1522  -3.1522  -1.1368  -1.0567  -0.9420  -0.6734
 -0.6640  -0.5699  -0.4827  -0.4826  -0.4456  -0.4323  -0.4316
 -- Virtual --
  0.1467   0.2008   0.2739   0.2785   0.4050   0.4765   0.4877   0.4905
  0.5516   0.6270   0.6346   0.7258   0.7313   0.7456   1.0853   1.1825
  1.1922   1.2009   1.2841   3.7473   4.4025   4.4034   4.4208   4.4210
  4.4611  69.2265
 
 Beta MOs
 -- Occupied --
********-104.8346 -65.1625 -58.5226 -58.5226 -58.5213 -11.3283 -10.5723
 -9.8306  -8.0382  -8.0382  -8.0265  -7.4390  -7.4371  -7.4371  -3.1638
 -3.1606  -3.1605  -3.1511  -3.1511  -1.0943  -1.0056  -0.9070  -0.6694
 -0.6633  -0.4713  -0.4601  -0.4569  -0.4147  -0.4138
 -- Virtual --
 -0.0663   0.1384   0.1968   0.2722   0.2771   0.4176   0.4927   0.4960
  0.5127   0.5840   0.6343   0.6423   0.7299   0.7419   0.7712   1.0613
  1.1870   1.1960   1.2071   1.2897   3.7597   4.4247   4.4250   4.4266
  4.4276   4.4883  69.2315
 --------------------------------------------------------------
 
          Ground-State Mulliken Net Atomic Charges

     Atom                 Charge (a.u.)    Spin (a.u.)
  --------------------------------------------------------
      1 C                    -0.774364      -0.525902
      2 Cl                   -0.072277       0.710624
      3 Br                   -0.022687       0.645770
      4 H                     0.291737       0.058371
      5 H                     0.294761       0.064375
      6 H                     0.282830       0.046763
  --------------------------------------------------------
  Sum of atomic charges =    -0.000000
  Sum of spin   charges =     1.000000

 -----------------------------------------------------------------
                    Cartesian Multipole Moments
 -----------------------------------------------------------------
    Charge (ESU x 10^10)
                 0.0000
    Dipole Moment (Debye)
         X      -0.0631      Y       0.0528      Z       0.2455
       Tot       0.2590
    Quadrupole Moments (Debye-Ang)
        XX     -45.3189     XY      -0.0509     YY     -38.7216
        XZ      -0.2402     YZ       0.0228     ZZ     -38.8430
    Octopole Moments (Debye-Ang^2)
       XXX      40.2137    XXY       0.7431    XYY       7.9756
       YYY       2.7737    XXZ       3.2785    XYZ      -0.0033
       YYZ       2.6231    XZZ       8.0643    YZZ       0.5278
       ZZZ      12.7376
    Hexadecapole Moments (Debye-Ang^3)
      XXXX    -906.4050   XXXY      -0.4659   XXYY    -169.6620
      XYYY      -0.4602   YYYY     -50.8939   XXXZ      -1.8215
      XXYZ      -0.0597   XYYZ       0.3253   YYYZ      -0.3770
      XXZZ    -169.7385   XYZZ       0.0850   YYZZ     -17.6812
      XZZZ      -1.9930   YZZZ      -0.3867   ZZZZ     -54.0011
 -----------------------------------------------------------------
 Calculating analytic gradient of the SCF energy
 Gradient of SCF Energy
            1           2           3           4           5           6
    1  -0.0066151   0.0383413  -0.0286285  -0.0007064  -0.0000089  -0.0023824
    2   0.0004231   0.0000935  -0.0003080   0.0043378  -0.0040438  -0.0005025
    3  -0.0016729   0.0005293  -0.0012401  -0.0019393  -0.0027256   0.0070486
 Max gradient component =       3.834E-02
 RMS gradient           =       1.164E-02
 Gradient time:  CPU 0.76 s  wall 0.76 s
 Geometry Optimization Parameters
   NAtoms,    NIC,     NZ,  NCons,   NDum,   NFix, NCnnct, MaxDiis
        6      27       0       0       0       0       0       0

 Cartesian Hessian Update
 Hessian updated using Powell/Murtagh-Sargent update
  Mixing factors:     0.374425 Powell                      0.625575 Murtagh-Sargent


** GEOMETRY OPTIMIZATION IN CARTESIAN COORDINATES **
   Searching for a Transition State

   Optimization Cycle:   6

                       Coordinates (Angstroms)
     ATOM                X               Y               Z
[...]
 SCF converges when DIIS error is below 1.0e-08
 ---------------------------------------
  Cycle       Energy         DIIS error
 ---------------------------------------
    1   -3071.0537166588      2.18e-05  
    2   -3071.0537185536      6.04e-06  
    3   -3071.0537188643      2.67e-06  
    4   -3071.0537189750      2.00e-06  
    5   -3071.0537190479      1.68e-06  
    6   -3071.0537191917      9.98e-07  
    7   -3071.0537192556      3.56e-07  
    8   -3071.0537192584      2.06e-07  
    9   -3071.0537192592      1.01e-07  
   10   -3071.0537192594      4.38e-08  
   11   -3071.0537192594      2.89e-08  
   12   -3071.0537192594      2.06e-08  
   13   -3071.0537192594      1.38e-08  
   14   -3071.0537192595      5.08e-09  Convergence criterion met
 ---------------------------------------
 SCF time:   CPU 2.36s  wall 3.00s 
<S^2> =          1.081549347
 SCF   energy in the final basis set =    -3071.0537192595
 Total energy in the final basis set =    -3071.0537192595
 
 --------------------------------------------------------------
 
                    Orbital Energies (a.u.)
 --------------------------------------------------------------
 
 Alpha MOs
 -- Occupied --
********-104.8496 -65.1693 -58.5353 -58.5287 -58.5287 -11.3132 -10.5850
 -9.8418  -8.0682  -8.0472  -8.0472  -7.4651  -7.4443  -7.4443  -3.1766
 -3.1717  -3.1717  -3.1568  -3.1568  -1.1155  -1.0380  -0.9476  -0.6494
 -0.6493  -0.5488  -0.4841  -0.4841  -0.4770  -0.4394  -0.4394
 -- Virtual --
  0.1185   0.2157   0.2874   0.2874   0.3918   0.4830   0.4831   0.5138
  0.5410   0.6193   0.6195   0.7119   0.7415   0.7417   1.0318   1.1835
  1.2095   1.2097   1.2255   3.7235   4.3930   4.3930   4.4162   4.4162
  4.4189  69.1016
 
 Beta MOs
 -- Occupied --
********-104.8400 -65.1672 -58.5274 -58.5274 -58.5256 -11.3248 -10.5754
 -9.8346  -8.0417  -8.0417  -8.0286  -7.4419  -7.4414  -7.4414  -3.1678
 -3.1647  -3.1647  -3.1555  -3.1555  -1.0560  -0.9924  -0.9239  -0.6548
 -0.6547  -0.4589  -0.4589  -0.4348  -0.4177  -0.4177
 -- Virtual --
 -0.0752   0.0709   0.2068   0.2836   0.2836   0.4071   0.4891   0.4892
  0.5512   0.5674   0.6261   0.6263   0.7394   0.7396   0.7615   0.9904
  1.1873   1.2108   1.2109   1.2170   3.7385   4.4209   4.4209   4.4212
  4.4212   4.4523  69.1075
 --------------------------------------------------------------
 
          Ground-State Mulliken Net Atomic Charges

     Atom                 Charge (a.u.)    Spin (a.u.)
  --------------------------------------------------------
      1 C                    -0.604130      -0.744372
      2 Cl                   -0.104141       0.781783
      3 Br                   -0.070717       0.776798
      4 H                     0.259534       0.061847
      5 H                     0.259829       0.062054
      6 H                     0.259624       0.061890
  --------------------------------------------------------
  Sum of atomic charges =    -0.000000
  Sum of spin   charges =     1.000000

 -----------------------------------------------------------------
                    Cartesian Multipole Moments
 -----------------------------------------------------------------
    Charge (ESU x 10^10)
                -0.0000
    Dipole Moment (Debye)
         X       0.1161      Y       0.0064      Z       0.0019
       Tot       0.1163
    Quadrupole Moments (Debye-Ang)
        XX     -44.6855     XY      -0.0066     YY     -39.0472
        XZ      -0.0030     YZ       0.0017     ZZ     -39.0478
    Octopole Moments (Debye-Ang^2)
       XXX      36.6287    XXY       0.0815    XYY       6.8787
       YYY       0.6259    XXZ       0.0157    XYZ      -0.0008
       YYZ      -1.0871    XZZ       6.8788    YZZ      -0.1831
       ZZZ       1.1745
    Hexadecapole Moments (Debye-Ang^3)
      XXXX   -1099.2786   XXXY      -0.0768   XXYY    -207.1295
      XYYY      -0.2745   YYYY     -51.4262   XXXZ      -0.1399
      XXYZ      -0.0007   XYYZ       0.6055   YYYZ      -0.0055
      XXZZ    -207.1288   XYZZ       0.1433   YYZZ     -17.1442
      XZZZ      -0.8422   YZZZ       0.0013   ZZZZ     -51.4211
 -----------------------------------------------------------------
 Calculating analytic gradient of the SCF energy
 Gradient of SCF Energy
            1           2           3           4           5           6
    1   0.0000430   0.0000581  -0.0000822  -0.0000139  -0.0000099   0.0000048
    2   0.0002158  -0.0000475  -0.0000481  -0.0001093  -0.0000665   0.0000556
    3   0.0002768  -0.0000180  -0.0000113   0.0000769  -0.0000575  -0.0002669
 Max gradient component =       2.768E-04
 RMS gradient           =       1.156E-04
 Gradient time:  CPU 0.71 s  wall 0.71 s
 Geometry Optimization Parameters
   NAtoms,    NIC,     NZ,  NCons,   NDum,   NFix, NCnnct, MaxDiis
        6      27       0       0       0       0       0       0

 Cartesian Hessian Update
 Hessian updated using Powell/Murtagh-Sargent update
  Mixing factors:     0.999717 Powell                      0.000283 Murtagh-Sargent


** GEOMETRY OPTIMIZATION IN CARTESIAN COORDINATES **
   Searching for a Transition State

   Optimization Cycle:  20

                       Coordinates (Angstroms)
     ATOM                X               Y               Z
      1  C        -0.6000794820    0.0017773761    0.0007394505
      2  Cl       -2.9861638549   -0.0041326583   -0.0017162225
      3  Br        1.8886556712   -0.0034250046   -0.0001763279
      4  H        -0.6101294703    0.9701320732   -0.4517315636
      5  H        -0.6097078545   -0.8745103964   -0.6117466815
      6  H        -0.6101767688   -0.0900918877    1.0654527025
   Point Group: c1    Number of degrees of freedom:    12


   Energy is  -3071.053719259


 Translations and Rotations Projected Out of Hessian

 12 Hessian modes will be used to form the next step
  Hessian Eigenvalues:
    -0.245877    0.006356    0.011542    0.052855    0.120666    0.122619
     0.132926    0.133019    0.308967    0.328721    0.814357    0.834622

 Transition state search - taking P-RFO step
 Searching for Lamda that Maximizes Along the Lowest mode
 Value Taken    Lamda =   0.00000001
 Searching for Lamda that Minimizes Along All other modes
 Value Taken    Lamda =  -0.00000103
 Step Taken.  Stepsize is  0.007410

                             Maximum     Tolerance    Cnvgd?
         Gradient           0.000277      0.000300     YES
         Displacement       0.004165      0.001200      NO
         Energy change     -0.000002      0.000001      NO

 ----------------------------------------------------------------
             Standard Nuclear Orientation (Angstroms)
    I     Atom           X                Y                Z
 ----------------------------------------------------------------
    1      C      -0.6000155895     0.0006562379     0.0007953283
    2      Cl     -2.9866304409    -0.0019288321    -0.0021152800
    3      Br      1.8890911026    -0.0012749679    -0.0005727648
    4      H      -0.6100590904     0.9692245010    -0.4517836224
    5      H      -0.6097669526    -0.8755326605    -0.6114418830
    6      H      -0.6102207885    -0.0913947762     1.0659395794
 ----------------------------------------------------------------
 Molecular Point Group                 C1    NOp =  1
 Largest Abelian Subgroup              C1    NOp =  1
 Nuclear Repulsion Energy =         172.40364867 hartrees
 There are       31 alpha and       30 beta electrons
 Applying Cartesian multipole field
    Component          Value
    ---------          -----
     (2,0,0)        1.00000E-11
     (0,2,0)        2.00000E-10
     (0,0,2)       -3.00000E-10
 Nucleus-field energy     =     0.0000000094 hartrees
 Requested basis set is 6-31G
 There are 20 shells and 57 basis functions
 A cutoff of  1.0D-12 yielded    191 shell pairs
 There are      1536 function pairs
 Smallest overlap matrix eigenvalue = 1.14E-03
 Guess MOs from SCF MO coefficient file

 -----------------------------------------------------------------------
  General SCF calculation program by
  Eric Jon Sundstrom, Paul Horn, Yuezhi Mao, Dmitri Zuev, Alec White,
  David Stuck, Shaama M.S., Shane Yost, Joonho Lee, David Small,
  Daniel Levine, Susi Lehtola, Hugh Burton, Evgeny Epifanovsky,
  Bang C. Huynh
 -----------------------------------------------------------------------
 Hartree-Fock
 A unrestricted SCF calculation will be
 performed using DIIS
 SCF converges when DIIS error is below 1.0e-08
 ---------------------------------------
  Cycle       Energy         DIIS error
 ---------------------------------------
    1   -3071.0537194572      9.16e-06  
    2   -3071.0537197545      2.58e-06  
    3   -3071.0537197978      1.25e-06  
    4   -3071.0537198097      7.78e-07  
    5   -3071.0537198210      6.11e-07  
    6   -3071.0537198341      4.36e-07  
    7   -3071.0537198435      2.63e-07  
    8   -3071.0537198467      1.41e-07  
    9   -3071.0537198475      5.78e-08  
   10   -3071.0537198476      2.20e-08  
   11   -3071.0537198476      1.17e-08  
   12   -3071.0537198476      7.30e-09  Convergence criterion met
 ---------------------------------------
 SCF time:   CPU 2.03s  wall 2.00s 
<S^2> =          1.081932031
 SCF   energy in the final basis set =    -3071.0537198476
 Total energy in the final basis set =    -3071.0537198476
 
 --------------------------------------------------------------
 
                    Orbital Energies (a.u.)
 --------------------------------------------------------------
 
 Alpha MOs
 -- Occupied --
********-104.8496 -65.1693 -58.5353 -58.5287 -58.5287 -11.3132 -10.5850
 -9.8418  -8.0682  -8.0473  -8.0473  -7.4650  -7.4443  -7.4443  -3.1766
 -3.1717  -3.1717  -3.1567  -3.1567  -1.1155  -1.0380  -0.9476  -0.6494
 -0.6492  -0.5488  -0.4841  -0.4841  -0.4770  -0.4394  -0.4394
 -- Virtual --
  0.1184   0.2157   0.2873   0.2874   0.3918   0.4830   0.4830   0.5139
  0.5410   0.6194   0.6195   0.7118   0.7416   0.7418   1.0318   1.1834
  1.2094   1.2096   1.2254   3.7235   4.3930   4.3930   4.4162   4.4162
  4.4188  69.1014
 
 Beta MOs
 -- Occupied --
********-104.8400 -65.1672 -58.5274 -58.5274 -58.5256 -11.3248 -10.5755
 -9.8346  -8.0418  -8.0418  -8.0286  -7.4418  -7.4414  -7.4414  -3.1678
 -3.1646  -3.1646  -3.1555  -3.1555  -1.0559  -0.9923  -0.9238  -0.6548
 -0.6546  -0.4589  -0.4589  -0.4347  -0.4177  -0.4177
 -- Virtual --
 -0.0752   0.0708   0.2067   0.2835   0.2836   0.4071   0.4891   0.4892
  0.5512   0.5673   0.6261   0.6262   0.7395   0.7397   0.7614   0.9903
  1.1872   1.2106   1.2109   1.2169   3.7384   4.4209   4.4209   4.4212
  4.4212   4.4523  69.1074
 --------------------------------------------------------------
 
          Ground-State Mulliken Net Atomic Charges

     Atom                 Charge (a.u.)    Spin (a.u.)
  --------------------------------------------------------
      1 C                    -0.603966      -0.744792
      2 Cl                   -0.104088       0.782051
      3 Br                   -0.070802       0.776857
      4 H                     0.259587       0.061945
      5 H                     0.259711       0.062008
      6 H                     0.259559       0.061931
  --------------------------------------------------------
  Sum of atomic charges =    -0.000000
  Sum of spin   charges =     1.000000

 -----------------------------------------------------------------
                    Cartesian Multipole Moments
 -----------------------------------------------------------------
    Charge (ESU x 10^10)
                -0.0000
    Dipole Moment (Debye)
         X       0.1144      Y       0.0027      Z       0.0026
       Tot       0.1145
    Quadrupole Moments (Debye-Ang)
        XX     -44.6824     XY      -0.0031     YY     -39.0476
        XZ      -0.0037     YZ       0.0005     ZZ     -39.0483
    Octopole Moments (Debye-Ang^2)
       XXX      36.6021    XXY       0.0348    XYY       6.8754
       YYY       0.4329    XXZ       0.0244    XYZ      -0.0001
       YYZ      -1.0751    XZZ       6.8755    YZZ      -0.2476
       ZZZ       1.2123
    Hexadecapole Moments (Debye-Ang^3)
      XXXX   -1099.5833   XXXY      -0.0659   XXYY    -207.1967
      XYYY      -0.2592   YYYY     -51.4267   XXXZ      -0.1417
      XXYZ      -0.0001   XYYZ       0.6047   YYYZ      -0.0017
      XXZZ    -207.1964   XYZZ       0.1485   YYZZ     -17.1452
      XZZZ      -0.8457   YZZZ       0.0006   ZZZZ     -51.4252
 -----------------------------------------------------------------
 Calculating analytic gradient of the SCF energy
 Gradient of SCF Energy
            1           2           3           4           5           6
    1   0.0000208   0.0000425  -0.0000443  -0.0000102  -0.0000097   0.0000009
    2  -0.0000971  -0.0000198  -0.0000192   0.0000590   0.0000729   0.0000042
    3  -0.0000873  -0.0000215  -0.0000155  -0.0000104   0.0000566   0.0000782
 Max gradient component =       9.707E-05
 RMS gradient           =       4.781E-05
 Gradient time:  CPU 0.71 s  wall 0.71 s
 Geometry Optimization Parameters
   NAtoms,    NIC,     NZ,  NCons,   NDum,   NFix, NCnnct, MaxDiis
        6      27       0       0       0       0       0       0

 Cartesian Hessian Update
 Hessian updated using Powell/Murtagh-Sargent update
  Mixing factors:     0.989407 Powell                      0.010593 Murtagh-Sargent


** GEOMETRY OPTIMIZATION IN CARTESIAN COORDINATES **
   Searching for a Transition State

   Optimization Cycle:  21

                       Coordinates (Angstroms)
     ATOM                X               Y               Z
      1  C        -0.6000155895    0.0006562379    0.0007953283
      2  Cl       -2.9866304409   -0.0019288321   -0.0021152800
      3  Br        1.8890911026   -0.0012749679   -0.0005727648
      4  H        -0.6100590904    0.9692245010   -0.4517836224
      5  H        -0.6097669526   -0.8755326605   -0.6114418830
      6  H        -0.6102207885   -0.0913947762    1.0659395794
   Point Group: c1    Number of degrees of freedom:    12


   Energy is  -3071.053719848


 Translations and Rotations Projected Out of Hessian

 12 Hessian modes will be used to form the next step
  Hessian Eigenvalues:
    -0.245783    0.004010    0.009313    0.049204    0.120752    0.122760
     0.132956    0.133051    0.309226    0.328835    0.815059    0.835789

 Transition state search - taking P-RFO step
 Searching for Lamda that Maximizes Along the Lowest mode
 Value Taken    Lamda =   0.00000000
 Searching for Lamda that Minimizes Along All other modes
 Value Taken    Lamda =  -0.00000069
 Step Taken.  Stepsize is  0.011625

                             Maximum     Tolerance    Cnvgd?
         Gradient           0.000097      0.000300     YES
         Displacement       0.006417      0.001200      NO
         Energy change     -0.000001      0.000001     YES


                       Distance Matrix (Angstroms)
             C (  1)   Cl(  2)   Br(  3)   H (  4)   H (  5)
   Cl(  2)  2.386618
   Br(  3)  2.489108  4.875722
   H (  4)  1.069137  2.606421  2.718678
   H (  5)  1.068942  2.604600  2.716943  1.851653
   H (  6)  1.069163  2.606927  2.718847  1.851593  1.851616
 
 Final energy is   -3071.05371984757     


 ******************************
 **  OPTIMIZATION CONVERGED  **
 ******************************

                       Coordinates (Angstroms)
     ATOM                X               Y               Z
      1  C        -0.6000155895    0.0006562379    0.0007953283
      2  Cl       -2.9866304409   -0.0019288321   -0.0021152800
      3  Br        1.8890911026   -0.0012749679   -0.0005727648
      4  H        -0.6100590904    0.9692245010   -0.4517836224
      5  H        -0.6097669526   -0.8755326605   -0.6114418830
      6  H        -0.6102207885   -0.0913947762    1.0659395794

Z-matrix Print:
$molecule
0 2
Br
C  1 2.489108
H  2 1.068942 1 90.468208
H  2 1.069137 1 90.565189 3 -120.010524 0
H  2 1.069163 1 90.574445 3 120.004182 0
Cl 2 2.386618 1 179.852961 3 -8.637793 0
$end

 
 --------------------------------------------------------------
 
                    Orbital Energies (a.u.)
 --------------------------------------------------------------
 
 Alpha MOs
 -- Occupied --
********-104.8496 -65.1693 -58.5353 -58.5287 -58.5287 -11.3132 -10.5850
 -9.8418  -8.0682  -8.0473  -8.0473  -7.4650  -7.4443  -7.4443  -3.1766
 -3.1717  -3.1717  -3.1567  -3.1567  -1.1155  -1.0380  -0.9476  -0.6494
 -0.6492  -0.5488  -0.4841  -0.4841  -0.4770  -0.4394  -0.4394
 -- Virtual --
  0.1184   0.2157   0.2873   0.2874   0.3918   0.4830   0.4830   0.5139
  0.5410   0.6194   0.6195   0.7118   0.7416   0.7418   1.0318   1.1834
  1.2094   1.2096   1.2254   3.7235   4.3930   4.3930   4.4162   4.4162
  4.4188  69.1014
 
 Beta MOs
 -- Occupied --
********-104.8400 -65.1672 -58.5274 -58.5274 -58.5256 -11.3248 -10.5755
 -9.8346  -8.0418  -8.0418  -8.0286  -7.4418  -7.4414  -7.4414  -3.1678
 -3.1646  -3.1646  -3.1555  -3.1555  -1.0559  -0.9923  -0.9238  -0.6548
 -0.6546  -0.4589  -0.4589  -0.4347  -0.4177  -0.4177
 -- Virtual --
 -0.0752   0.0708   0.2067   0.2835   0.2836   0.4071   0.4891   0.4892
  0.5512   0.5673   0.6261   0.6262   0.7395   0.7397   0.7614   0.9903
  1.1872   1.2106   1.2109   1.2169   3.7384   4.4209   4.4209   4.4212
  4.4212   4.4523  69.1074
 --------------------------------------------------------------
 
          Ground-State Mulliken Net Atomic Charges

     Atom                 Charge (a.u.)    Spin (a.u.)
  --------------------------------------------------------
      1 C                    -0.603966      -0.744792
      2 Cl                   -0.104088       0.782051
      3 Br                   -0.070802       0.776857
      4 H                     0.259587       0.061945
      5 H                     0.259711       0.062008
      6 H                     0.259559       0.061931
  --------------------------------------------------------
  Sum of atomic charges =    -0.000000
  Sum of spin   charges =     1.000000

 -----------------------------------------------------------------
                    Cartesian Multipole Moments
 -----------------------------------------------------------------
    Charge (ESU x 10^10)
                -0.0000
    Dipole Moment (Debye)
         X       0.1144      Y       0.0027      Z       0.0026
       Tot       0.1145
    Quadrupole Moments (Debye-Ang)
        XX     -44.6824     XY      -0.0031     YY     -39.0476
        XZ      -0.0037     YZ       0.0005     ZZ     -39.0483
    Octopole Moments (Debye-Ang^2)
       XXX      36.6021    XXY       0.0348    XYY       6.8754
       YYY       0.4329    XXZ       0.0244    XYZ      -0.0001
       YYZ      -1.0751    XZZ       6.8755    YZZ      -0.2476
       ZZZ       1.2123
    Hexadecapole Moments (Debye-Ang^3)
      XXXX   -1099.5833   XXXY      -0.0659   XXYY    -207.1967
      XYYY      -0.2592   YYYY     -51.4267   XXXZ      -0.1417
      XXYZ      -0.0001   XYYZ       0.6047   YYYZ      -0.0017
      XXZZ    -207.1964   XYZZ       0.1485   YYZZ     -17.1452
      XZZZ      -0.8457   YZZZ       0.0006   ZZZZ     -51.4252
 -----------------------------------------------------------------
 Total job time:  75.04s(wall), 74.83s(cpu) 
 Wed Feb  8 13:09:48 2023

        *************************************************************
        *                                                           *
        *  Thank you very much for using Q-Chem.  Have a nice day.  *
        *                                                           *
        *************************************************************


