
Running Job 1 of 2 input
qchem input_9595.0 /aimm/scratch/qchem9595/ 0
/home/epif/aimm/qcprog.exe_s input_9595.0 /aimm/scratch/qchem9595/
8388608
                  Welcome to Q-Chem
     A Quantum Leap Into The Future Of Chemistry


 Q-Chem 6.0, Q-Chem, Inc., Pleasanton, CA (2022)

 E. Epifanovsky,  A. T. B. Gilbert,  Xintian Feng,  Joonho Lee,  Yuezhi Mao,  
 N. Mardirossian,  P. Pokhilko,  A. White,  M. Wormit,  M. P. Coons,  
 A. L. Dempwolff,  Zhengting Gan,  D. Hait,  P. R. Horn,  L. D. Jacobson,  
 I. Kaliman,  J. Kussmann,  A. W. Lange,  Ka Un Lao,  D. S. Levine,  Jie Liu,  
 S. C. McKenzie,  A. F. Morrison,  K. Nanda,  F. Plasser,  D. R. Rehn,  
 M. L. Vidal,  Zhi-Qiang You,  Ying Zhu,  B. Alam,  B. Albrecht,  
 A. Aldossary,  E. Alguire,  J. H. Andersen,  V. Athavale,  D. Barton,  
 K. Begam,  A. Behn,  N. Bellonzi,  Y. A. Bernard,  E. J. Berquist,  
 H. Burton,  A. Carreras,  K. Carter-Fenk,  Romit Chakraborty,  
 Chandrima Chakravarty,  Junhan Chen,  A. D. Chien,  K. D. Closser,  
 V. Cofer-Shabica,  L. Cunha,  S. Dasgupta,  Jia Deng,  M. de Wergifosse,  
 M. Diedenhofen,  Hainam Do,  S. Ehlert,  Po-Tung Fang,  S. Fatehi,  
 Qingguo Feng,  T. Friedhoff,  B. Ganoe,  J. Gayvert,  Qinghui Ge,  
 G. Gidofalvi,  M. Goldey,  J. Gomes,  C. Gonzalez-Espinoza,  S. Gulania,  
 A. Gunina,  J. A. Gyamfi,  M. W. D. Hanson-Heine,  P. H. P. Harbach,  
 A. W. Hauser,  M. F. Herbst,  M. Hernandez Vera,  M. Hodecker,  
 Z. C. Holden,  S. Houck,  Xunkun Huang,  Kerwin Hui,  B. C. Huynh,  
 K. Ikeda,  M. Ivanov,  Hyunjun Ji,  Zuxin Jin,  Hanjie Jiang,  B. Kaduk,  
 S. Kaehler,  R. Kang,  K. Khistyaev,  Jaehoon Kim,  Yongbin Kim,  
 P. Klunzinger,  Z. Koczor-Benda,  Joong Hoon Koh,  D. Kosenkov,  
 Saikiran Kotaru,  L. Koulias,  T. Kowalczyk,  C. M. Krauter,  K. Kue,  
 A. Kunitsa,  T. Kus,  A. Landau,  K. V. Lawler,  D. Lefrancois,  S. Lehtola,  
 Rain Li,  Shaozhi Li,  Yi-Pei Li,  Jiashu Liang,  M. Liebenthal,  
 Hung-Hsuan Lin,  You-Sheng Lin,  Fenglai Liu,  Kuan-Yu Liu,  
 M. Loipersberger,  A. Luenser,  C. Malbon,  A. Manjanath,  P. Manohar,  
 E. Mansoor,  S. F. Manzer,  Shan-Ping Mao,  A. V. Marenich,  T. Markovich,  
 S. Mason,  F. Matz,  S. A. Maurer,  P. F. McLaughlin,  M. F. S. J. Menger,  
 J.-M. Mewes,  S. A. Mewes,  P. Morgante,  Mohammad Mostafanejad,  
 J. W. Mullinax,  K. J. Oosterbaan,  G. Paran,  V. Parravicini,  
 Alexander C. Paul,  Suranjan K. Paul,  F. Pavosevic,  Zheng Pei,  S. Prager,  
 E. I. Proynov,  E. Ramos,  B. Rana,  A. E. Rask,  A. Rettig,  R. M. Richard,  
 F. Rob,  E. Rossomme,  T. Scheele,  M. Scheurer,  M. Schneider,  
 P. E. Schneider,  N. Sergueev,  S. M. Sharada,  Hengyuan Shen,  
 W. Skomorowski,  D. W. Small,  C. J. Stein,  Yingli Su,  Yu-Chuan Su,  
 E. J. Sundstrom,  Zhen Tao,  J. Thirman,  Hung-Yi Tsai,  T. Tsuchimochi,  
 N. M. Tubman,  C. Utku,  S. P. Veccham,  O. Vydrov,  J. Wenzel,  
 Jonathan Wong,  J. Witte,  A. Yamada,  Chou-Hsun Yang,  Kun Yao,  
 S. Yeganeh,  S. R. Yost,  A. Zech,  F. Zeller,  Igor Ying Zhang,  
 Xing Zhang,  Yu Zhang,  D. Zuev,  A. Aspuru-Guzik,  A. T. Bell,  
 N. A. Besley,  K. B. Bravaya,  B. R. Brooks,  D. Casanova,  Jeng-Da Chai,  
 Hsing-Ta Chen,  S. Coriani,  C. J. Cramer,  A. E. DePrince, III,  
 R. A. DiStasio Jr.,  A. Dreuw,  B. D. Dunietz,  T. R. Furlani,  
 W. A. Goddard III,  S. Grimme,  S. Hammes-Schiffer,  T. Head-Gordon,  
 W. J. Hehre,  Chao-Ping Hsu,  T.-C. Jagau,  Yousung Jung,  A. Klamt,  
 Jing Kong,  D. S. Lambrecht,  Xiangyuan Li,  WanZhen Liang,  N. J. Mayhall,  
 C. W. McCurdy,  J. B. Neaton,  T. Neudecker,  C. Ochsenfeld,  
 J. A. Parkhill,  R. Peverati,  V. A. Rassolov,  Haisheng Ren,  Yihan Shao,  
 L. V. Slipchenko,  R. P. Steele,  J. E. Subotnik,  A. J. W. Thom,  
 A. Tkatchenko,  D. G. Truhlar,  T. Van Voorhis,  Fan Wang,  
 T. A. Wesolowski,  K. B. Whaley,  H. L. Woodcock III,  P. M. Zimmerman,  
 S. Faraji,  P. M. W. Gill,  M. Head-Gordon,  J. M. Herbert,  A. I. Krylov

 Contributors to earlier versions of Q-Chem not listed above: 
 R. D. Adamson,  B. Austin,  R. Baer,  J. Baker,  G. J. O. Beran,  
 K. Brandhorst,  S. T. Brown,  E. F. C. Byrd,  Arup K. Chakraborty,  
 G. K. L. Chan,  Chun-Min Chang,  Yunqing Chen,  C.-L. Cheng,  
 Siu Hung Chien,  D. M. Chipman,  D. L. Crittenden,  H. Dachsel,  
 R. J. Doerksen,  A. D. Dutoi,  R. G. Edgar,  J. Fosso-Tande,  
 L. Fusti-Molnar,  D. Ghosh,  A. Ghysels,  A. Golubeva-Zadorozhnaya,  
 J. Gonthier,  M. S. Gordon,  S. R. Gwaltney,  G. Hawkins,  J. E. Herr,  
 A. Heyden,  S. Hirata,  E. G. Hohenstein,  G. Kedziora,  F. J. Keil,  
 C. Kelley,  Jihan Kim,  R. A. King,  R. Z. Khaliullin,  P. P. Korambath,  
 W. Kurlancheek,  A. Laurent,  A. M. Lee,  M. S. Lee,  S. V. Levchenko,  
 Ching Yeh Lin,  D. Liotard,  E. Livshits,  R. C. Lochan,  I. Lotan,  
 L. A. Martinez-Martinez,  P. E. Maslen,  N. Nair,  D. P. O'Neill,  
 D. Neuhauser,  E. Neuscamman,  C. M. Oana,  R. Olivares-Amaya,  R. Olson,  
 T. M. Perrine,  B. Peters,  P. A. Pieniazek,  A. Prociuk,  Y. M. Rhee,  
 J. Ritchie,  M. A. Rohrdanz,  E. Rosta,  N. J. Russ,  H. F. Schaefer III,  
 M. W. Schmidt,  N. E. Schultz,  S. Sharma,  N. Shenvi,  C. D. Sherrill,  
 A. C. Simmonett,  A. Sodt,  T. Stein,  D. Stuck,  K. S. Thanthiriwatte,  
 V. Vanovschi,  L. Vogt,  Tao Wang,  A. Warshel,  M. A. Watson,  
 C. F. Williams,  Q. Wu,  X. Xu,  Jun Yang,  W. Zhang,  Yan Zhao

   Please cite Q-Chem as follows:
  "Software for the frontiers of quantum chemistry:
   An overview of developments in the Q-Chem 5 package"
   J. Chem. Phys. 155, 084801 (2021)
   https://doi.org/10.1063/5.0055522 (open access)

 Q-Chem 6.0.0 for Intel X86 EM64T Linux

 Parts of Q-Chem use Armadillo 9.900.5 (Nocturnal Misbehaviour).
 http://arma.sourceforge.net/

 Q-Chem begins on Wed Feb  8 12:51:01 2023  

 Host: iqmol
0

     Scratch files written to /aimm/scratch/qchem9595//
 Jul222 |scratch|qcdevops|jenkins|workspace|build_RNUM 6466   
 Processing $rem in /opt/qchem/qc600/config/preferences:
 Processing $rem in /home/epif/.qchemrc:

 Checking the input file for inconsistencies... 	...done.

--------------------------------------------------------------
User input:
--------------------------------------------------------------
$molecule
1 1
Cu    0.4117537   -0.0402635    0.0000000
H   -1.1855664    0.4793123    0.0000000
H   -1.2434158   -0.3245173    0.0000000
$end

$rem
BASIS  =  def2-svpd
GUI  =  2
JOB_TYPE  =  Optimization
METHOD  =  wB97XD
SCF_CONVERGENCE  =  8
SYMMETRY  =  FALSE
$end



--------------------------------------------------------------
 ----------------------------------------------------------------
             Standard Nuclear Orientation (Angstroms)
    I     Atom           X                Y                Z
 ----------------------------------------------------------------
    1      Cu      0.1051932716     0.0000028076    -0.0000000000
    2      H      -1.5254671670     0.4029135271    -0.0000000000
    3      H      -1.5251377088    -0.4029949481     0.0000000000
 ----------------------------------------------------------------
 Molecular Point Group                 Cs    NOp =  2
 Largest Abelian Subgroup              Cs    NOp =  2
 Nuclear Repulsion Energy =          18.93068540 hartrees
 There are       15 alpha and       15 beta electrons
 Requested basis set is def2-SVPD
 There are 20 shells and 50 basis functions

 Total QAlloc Memory Limit   8000 MB
 Mega-Array Size       188 MB
 MEM_STATIC part       192 MB

 -----------------------------------------------------------------------
                STARTING GEOMETRY OPTIMIZER USING LIBOPT3
                by Peter F. McLaughlin, Yu Zhang, Evgeny Epifanovsky
 -----------------------------------------------------------------------

              Initial Energy and Gradient Calculation
  Checking Topology for Ill-Behaving Coordinates
  Done Checking Topology
 ----------------------------------------------------------------
             Standard Nuclear Orientation (Angstroms)
    I     Atom           X                Y                Z
 ----------------------------------------------------------------
    1      Cu      0.1051932716     0.0000028076     0.0000000000
    2      H      -1.5254671670     0.4029135271     0.0000000000
    3      H      -1.5251377088    -0.4029949481    -0.0000000000
 ----------------------------------------------------------------
 Molecular Point Group                 Cs    NOp =  2
 Largest Abelian Subgroup              Cs    NOp =  2
 Nuclear Repulsion Energy =          18.93068540 hartrees
 There are       15 alpha and       15 beta electrons

                       Distance Matrix (Angstroms)
             Cu(  1)   H (  2)
   H (  2)  1.679700
   H (  3)  1.679401  0.805909
 
 Requested basis set is def2-SVPD
 There are 20 shells and 50 basis functions
 A cutoff of  1.0D-12 yielded    210 shell pairs
 There are      1340 function pairs (      1639 Cartesian)
 Smallest overlap matrix eigenvalue = 4.15E-04

 Scale SEOQF with 1.000000e-01/1.000000e-01/1.000000e-01

 Standard Electronic Orientation quadrupole field applied
 Nucleus-field energy     =     0.0000000002 hartrees
 Guess from superposition of atomic densities
 Warning:  Energy on first SCF cycle will be non-variational
 SAD guess density has 31.000000 electrons

 -----------------------------------------------------------------------
  General SCF calculation program by
  Eric Jon Sundstrom, Paul Horn, Yuezhi Mao, Dmitri Zuev, Alec White,
  David Stuck, Shaama M.S., Shane Yost, Joonho Lee, David Small,
  Daniel Levine, Susi Lehtola, Hugh Burton, Evgeny Epifanovsky,
  Bang C. Huynh
 -----------------------------------------------------------------------
 Exchange:     0.2220 Hartree-Fock + 1.0000 wB97X-D + LR-HF
 Correlation:  1.0000 wB97X-D
 Using SG-2 standard quadrature grid
 Dispersion:   Grimme D
 A restricted SCF calculation will be
 performed using DIIS
 SCF converges when DIIS error is below 1.0e-08
 ---------------------------------------
  Cycle       Energy         DIIS error
 ---------------------------------------
    1   -1641.3604538068      5.61e-02  
    2   -1641.1540193184      1.80e-02  
    3   -1641.1376942990      2.09e-02  
    4   -1641.2158648058      5.26e-04  
    5   -1641.2161310890      1.22e-04  
    6   -1641.2161436738      2.01e-05  
    7   -1641.2161443260      7.34e-06  
    8   -1641.2161444210      3.31e-06  
    9   -1641.2161444454      1.13e-06  
   10   -1641.2161444483      1.22e-07  
   11   -1641.2161444483      2.40e-08  
   12   -1641.2161444483      4.33e-09  Convergence criterion met
 ---------------------------------------
 SCF time:   CPU 5.82s  wall 6.00s 
 SCF   energy in the final basis set =    -1641.2161444483
 Total energy in the final basis set =    -1641.2161444483
 
 --------------------------------------------------------------
             Orbital Energies (a.u.) and Symmetries
 --------------------------------------------------------------
 
 Alpha MOs, Restricted
 -- Occupied --                  
-323.54  -39.26  -34.46  -34.46  -34.46   -4.69   -3.18   -3.18
  1 A'    2 A'    3 A'    4 A'    1 A"    5 A'    6 A'    7 A'                 
 -3.174  -0.850  -0.661  -0.657  -0.654  -0.654  -0.640
  2 A"    8 A'    9 A'    3 A"   10 A'    4 A"   11 A'                         
 -- Virtual --                   
 -0.249  -0.177  -0.146  -0.066  -0.060  -0.038   0.026   0.029
 12 A'   13 A'    5 A"   14 A'   15 A'   16 A'    6 A"   17 A'                 
  0.061   0.086   0.147   0.152   0.210   0.254   0.264   0.475
 18 A'    7 A"   19 A'    8 A"   20 A'   21 A'   22 A'   23 A'                 
  0.850   0.892   0.895   0.901   0.926   1.054   1.261   1.637
 24 A'   25 A'    9 A"   10 A"   26 A'   27 A'   11 A"   28 A'                 
  1.772   1.810   1.947   2.973   5.591   5.591   5.592   5.594
 29 A'   12 A"   30 A'   31 A'   13 A"   32 A'   14 A"   15 A"                 
  5.595   5.615   5.615
 33 A'   34 A'   35 A'                                                         
 
 Beta MOs, Restricted
 -- Occupied --                  
-323.54  -39.26  -34.46  -34.46  -34.46   -4.69   -3.18   -3.18
  1 A'    2 A'    3 A'    4 A'    1 A"    5 A'    6 A'    7 A'                 
 -3.174  -0.850  -0.661  -0.657  -0.654  -0.654  -0.640
  2 A"    8 A'    9 A'    3 A"   10 A'    4 A"   11 A'                         
 -- Virtual --                   
 -0.249  -0.177  -0.146  -0.066  -0.060  -0.038   0.026   0.029
 12 A'   13 A'    5 A"   14 A'   15 A'   16 A'    6 A"   17 A'                 
  0.061   0.086   0.147   0.152   0.210   0.254   0.264   0.475
 18 A'    7 A"   19 A'    8 A"   20 A'   21 A'   22 A'   23 A'                 
  0.850   0.892   0.895   0.901   0.926   1.054   1.261   1.637
 24 A'   25 A'    9 A"   10 A"   26 A'   27 A'   11 A"   28 A'                 
  1.772   1.810   1.947   2.973   5.591   5.591   5.592   5.594
 29 A'   12 A"   30 A'   31 A'   13 A"   32 A'   14 A"   15 A"                 
  5.595   5.615   5.615
 33 A'   34 A'   35 A'                                                         
 --------------------------------------------------------------
 
          Ground-State Mulliken Net Atomic Charges

     Atom                 Charge (a.u.)
  ----------------------------------------
      1 Cu                    0.708637
      2 H                     0.146414
      3 H                     0.144950
  ----------------------------------------
  Sum of atomic charges =     1.000000

 -----------------------------------------------------------------
                    Cartesian Multipole Moments
 -----------------------------------------------------------------
    Charge (ESU x 10^10)
                 4.8032
    Dipole Moment (Debye)
         X      -0.0781      Y       0.0002      Z      -0.0000
       Tot       0.0781
    Quadrupole Moments (Debye-Ang)
        XX      -7.6801     XY      -0.0004     YY     -10.3366
        XZ       0.0000     YZ       0.0000     ZZ     -11.0468
    Octopole Moments (Debye-Ang^2)
       XXX       0.6521    XXY       0.0011    XYY       1.0523
       YYY       0.0002    XXZ      -0.0000    XYZ      -0.0000
       YYZ      -0.0000    XZZ       2.1803    YZZ       0.0001
       ZZZ      -0.0000
    Hexadecapole Moments (Debye-Ang^3)
      XXXX     -19.6680   XXXY      -0.0024   XXYY      -4.5444
      XYYY      -0.0001   YYYY      -8.1730   XXXZ       0.0000
      XXYZ       0.0000   XYYZ       0.0000   YYYZ       0.0000
      XXZZ      -6.2752   XYZZ      -0.0001   YYZZ      -2.6268
      XZZZ       0.0000   YZZZ       0.0000   ZZZZ      -7.3927
 -----------------------------------------------------------------
 Calculating analytic gradient of the SCF energy
 Gradient of SCF Energy
            1           2           3
    1  -0.0079258   0.0039485   0.0039773
    2  -0.0000077   0.0003388  -0.0003311
    3   0.0000000  -0.0000000  -0.0000000
 Max gradient component =       7.926E-03
 RMS gradient           =       3.240E-03
 Gradient time:  CPU 1.37 s  wall 1.36 s

 *****************************************************
             Starting BFGS Algorithm
 *****************************************************
            LIBOPT3 RUN PARAMETERS

  Geometry Optimization Coordinates :
	Delocalized Natural Internal Coordinates

  Step Length Selection Method :
	Eigenvector Following Algorithm

  Convergence Criteria :
	Max Gradient Component    	3.00000000e-04
	Max Displacement Component	1.20000000e-03
	Absolute Energy Difference	1.00000000e-06

  Initial Hessian :
	Approximate Hessian - Simple Internal Coordinate Scaled

  Type of Verification :
	Verify with final updated Hessian
 *****************************************************

	OPTIMIZATION CYCLE:	1

 Scaling Magnitude of Eigenvalues
 	Minimum: -25.00000000	 Maximum: 25.00000000
 3 Hessian Eigenvalues to form next step
   0.31427090   0.45506128   0.50000000


 Minimum Search taking a RFO step
 Searching for Lambda that minimizes along all modes
	Value of Lambda  -0.00006884
	Norm of Stepsize  0.01188267
	RMS of Stepsize  0.00686046

	Performing Iterative Coordinate Back-Transformation

	  Starting from Previous Position

	  iter:	0	rms: 2.3969489003e-03	maxdev: 5.7268336037e-03
	  iter:	1	rms: 5.5867464223e-07	maxdev: 1.0948899186e-06	 Success!

	Finished Iterative Coordinate Back-Transformation
 ----------------------------------------------------------------
             Standard Nuclear Orientation (Angstroms)
    I     Atom           X                Y                Z
 ----------------------------------------------------------------
    1      Cu      0.1082235005     0.0000068573    -0.0000000000
    2      H      -1.5269740091     0.4023177777    -0.0000000000
    3      H      -1.5266610956    -0.4024032484     0.0000000000
 ----------------------------------------------------------------
 Molecular Point Group                 Cs    NOp =  2
 Largest Abelian Subgroup              Cs    NOp =  2
 Nuclear Repulsion Energy =          18.88530184 hartrees
 There are       15 alpha and       15 beta electrons

                       Distance Matrix (Angstroms)
             Cu(  1)   H (  2)
   H (  2)  1.683961
   H (  3)  1.683681  0.804721
 
 Applying Cartesian multipole field
    Component          Value
    ---------          -----
     (2,0,0)        1.00000E-11
     (0,2,0)        2.00000E-11
     (0,0,2)       -3.00000E-11
 Nucleus-field energy     = 2.0175006146e-10 hartrees
 Requested basis set is def2-SVPD
 There are 20 shells and 50 basis functions
 A cutoff of  1.0D-12 yielded    210 shell pairs
 There are      1340 function pairs (      1639 Cartesian)
 Smallest overlap matrix eigenvalue = 4.13E-04
 Guess MOs from SCF MO coefficient file

 -----------------------------------------------------------------------
  General SCF calculation program by
  Eric Jon Sundstrom, Paul Horn, Yuezhi Mao, Dmitri Zuev, Alec White,
  David Stuck, Shaama M.S., Shane Yost, Joonho Lee, David Small,
  Daniel Levine, Susi Lehtola, Hugh Burton, Evgeny Epifanovsky,
  Bang C. Huynh
 -----------------------------------------------------------------------
 Exchange:     0.2220 Hartree-Fock + 1.0000 wB97X-D + LR-HF
 Correlation:  1.0000 wB97X-D
 Using SG-2 standard quadrature grid
 Dispersion:   Grimme D
 A restricted SCF calculation will be
 performed using DIIS
 SCF converges when DIIS error is below 1.0e-08
 ---------------------------------------
  Cycle       Energy         DIIS error
 ---------------------------------------
    1   -1641.2162086656      9.33e-05  
    2   -1641.2162102783      1.41e-05  
    3   -1641.2162104148      7.90e-06  
    4   -1641.2162104349      7.70e-06  
    5   -1641.2162104512      1.16e-06  
    6   -1641.2162104535      4.55e-07  
    7   -1641.2162104540      8.97e-08  
    8   -1641.2162104541      1.59e-08  
    9   -1641.2162104541      2.64e-09  Convergence criterion met
 ---------------------------------------
 SCF time:   CPU 4.47s  wall 4.00s 
 SCF   energy in the final basis set =    -1641.2162104541
 Total energy in the final basis set =    -1641.2162104541
 
 --------------------------------------------------------------
             Orbital Energies (a.u.) and Symmetries
 --------------------------------------------------------------
 
 Alpha MOs, Restricted
 -- Occupied --                  
-323.54  -39.26  -34.46  -34.46  -34.46   -4.69   -3.18   -3.18
  1 A'    2 A'    3 A'    4 A'    1 A"    5 A'    6 A'    7 A'                 
 -3.173  -0.849  -0.660  -0.657  -0.653  -0.653  -0.639
  2 A"    8 A'    9 A'    3 A"   10 A'    4 A"   11 A'                         
 -- Virtual --                   
 -0.249  -0.176  -0.145  -0.066  -0.061  -0.038   0.026   0.028
 12 A'   13 A'    5 A"   14 A'   15 A'   16 A'    6 A"   17 A'                 
  0.061   0.086   0.147   0.153   0.210   0.253   0.264   0.475
 18 A'    7 A"   19 A'    8 A"   20 A'   21 A'   22 A'   23 A'                 
  0.851   0.892   0.896   0.901   0.924   1.053   1.260   1.639
 24 A'   25 A'    9 A"   10 A"   26 A'   27 A'   11 A"   28 A'                 
  1.771   1.812   1.947   2.978   5.591   5.591   5.592   5.595
 29 A'   12 A"   30 A'   31 A'   13 A"   32 A'   14 A"   15 A"                 
  5.595   5.614   5.615
 33 A'   34 A'   35 A'                                                         
 
 Beta MOs, Restricted
 -- Occupied --                  
-323.54  -39.26  -34.46  -34.46  -34.46   -4.69   -3.18   -3.18
  1 A'    2 A'    3 A'    4 A'    1 A"    5 A'    6 A'    7 A'                 
 -3.173  -0.849  -0.660  -0.657  -0.653  -0.653  -0.639
  2 A"    8 A'    9 A'    3 A"   10 A'    4 A"   11 A'                         
 -- Virtual --                   
 -0.249  -0.176  -0.145  -0.066  -0.061  -0.038   0.026   0.028
 12 A'   13 A'    5 A"   14 A'   15 A'   16 A'    6 A"   17 A'                 
  0.061   0.086   0.147   0.153   0.210   0.253   0.264   0.475
 18 A'    7 A"   19 A'    8 A"   20 A'   21 A'   22 A'   23 A'                 
  0.851   0.892   0.896   0.901   0.924   1.053   1.260   1.639
 24 A'   25 A'    9 A"   10 A"   26 A'   27 A'   11 A"   28 A'                 
  1.771   1.812   1.947   2.978   5.591   5.591   5.592   5.595
 29 A'   12 A"   30 A'   31 A'   13 A"   32 A'   14 A"   15 A"                 
  5.595   5.614   5.615
 33 A'   34 A'   35 A'                                                         
 --------------------------------------------------------------
 
          Ground-State Mulliken Net Atomic Charges

     Atom                 Charge (a.u.)
  ----------------------------------------
      1 Cu                    0.709340
      2 H                     0.146013
      3 H                     0.144647
  ----------------------------------------
  Sum of atomic charges =     1.000000

 -----------------------------------------------------------------
                    Cartesian Multipole Moments
 -----------------------------------------------------------------
    Charge (ESU x 10^10)
                 4.8032
    Dipole Moment (Debye)
         X      -0.0696      Y       0.0002      Z      -0.0000
       Tot       0.0696
    Quadrupole Moments (Debye-Ang)
        XX      -7.6716     XY      -0.0004     YY     -10.3331
        XZ       0.0000     YZ       0.0000     ZZ     -11.0408
    Octopole Moments (Debye-Ang^2)
       XXX       0.5743    XXY       0.0010    XYY       1.0254
       YYY       0.0000    XXZ      -0.0000    XYZ      -0.0000
       YYZ      -0.0000    XZZ       2.1516    YZZ       0.0001
       ZZZ      -0.0000
    Hexadecapole Moments (Debye-Ang^3)
      XXXX     -19.7286   XXXY      -0.0023   XXYY      -4.5528
      XYYY      -0.0001   YYYY      -8.1597   XXXZ       0.0000
      XXYZ       0.0000   XYYZ       0.0000   YYYZ       0.0000
      XXZZ      -6.2812   XYZZ      -0.0001   YYZZ      -2.6220
      XZZZ       0.0000   YZZZ       0.0000   ZZZZ      -7.3785
 -----------------------------------------------------------------
 Calculating analytic gradient of the SCF energy
 Gradient of SCF Energy
            1           2           3
    1  -0.0073702   0.0036731   0.0036970
    2  -0.0000071  -0.0000246   0.0000318
    3   0.0000000  -0.0000000  -0.0000000
 Max gradient component =       7.370E-03
 RMS gradient           =       3.009E-03
 Gradient time:  CPU 1.36 s  wall 1.36 s

     Step 1	:
        Energy is -1641.2162104541
                            Maximum         Tolerance       Converged?
         Gradient           4.80057113e-03	3.00000000e-04	false
         Displacement       1.00878434e-02	1.20000000e-03	false
         Energy change      6.60057672e-05	1.00000000e-06	false


	OPTIMIZATION CYCLE:	2

 Scaling Magnitude of Eigenvalues
 	Minimum: -25.00000000	 Maximum: 25.00000000
 3 Hessian Eigenvalues to form next step
   0.03826496   0.31427209   0.48372677


 Minimum Search taking a RFO step
 Searching for Lambda that minimizes along all modes
	Value of Lambda  -0.00073226
	Norm of Stepsize  0.13701988
	RMS of Stepsize  0.07910846

	Performing Iterative Coordinate Back-Transformation

	  Starting from Previous Position

	  iter:	0	rms: 2.7406551980e-02	maxdev: 6.6282535322e-02
	  iter:	1	rms: 6.3756828990e-05	maxdev: 1.2846783297e-04
	  iter:	2	rms: 5.9769019786e-10	maxdev: 1.3955603081e-09	 Success!

	Finished Iterative Coordinate Back-Transformation
 ----------------------------------------------------------------
             Standard Nuclear Orientation (Angstroms)
    I     Atom           X                Y                Z
 ----------------------------------------------------------------
    1      Cu      0.1432724905     0.0000502095    -0.0000000000
    2      H      -1.5444106575     0.3973502571    -0.0000000000
    3      H      -1.5442734372    -0.3974790800     0.0000000000
 ----------------------------------------------------------------
 Molecular Point Group                 Cs    NOp =  2
 Largest Abelian Subgroup              Cs    NOp =  2
 Nuclear Repulsion Energy =          18.36827801 hartrees
 There are       15 alpha and       15 beta electrons

                       Distance Matrix (Angstroms)
             Cu(  1)   H (  2)
   H (  2)  1.733817
   H (  3)  1.733736  0.794829
 
 Applying Cartesian multipole field
    Component          Value
    ---------          -----
     (2,0,0)        1.00000E-11
     (0,2,0)        2.00000E-11
     (0,0,2)       -3.00000E-11
 Nucleus-field energy     = 2.1415753461e-10 hartrees
 Requested basis set is def2-SVPD
 There are 20 shells and 50 basis functions
 A cutoff of  1.0D-12 yielded    210 shell pairs
 There are      1340 function pairs (      1639 Cartesian)
 Smallest overlap matrix eigenvalue = 4.00E-04
 Guess MOs from SCF MO coefficient file

 -----------------------------------------------------------------------
  General SCF calculation program by
  Eric Jon Sundstrom, Paul Horn, Yuezhi Mao, Dmitri Zuev, Alec White,
  David Stuck, Shaama M.S., Shane Yost, Joonho Lee, David Small,
  Daniel Levine, Susi Lehtola, Hugh Burton, Evgeny Epifanovsky,
  Bang C. Huynh
 -----------------------------------------------------------------------
 Exchange:     0.2220 Hartree-Fock + 1.0000 wB97X-D + LR-HF
 Correlation:  1.0000 wB97X-D
 Using SG-2 standard quadrature grid
 Dispersion:   Grimme D
 A restricted SCF calculation will be
 performed using DIIS
 SCF converges when DIIS error is below 1.0e-08
 ---------------------------------------
  Cycle       Energy         DIIS error
 ---------------------------------------
    1   -1641.2164251664      1.05e-03  
    2   -1641.2166196269      1.55e-04  
    3   -1641.2166364363      9.14e-05  
    4   -1641.2166391757      8.36e-05  
    5   -1641.2166412824      1.31e-05  
    6   -1641.2166415985      5.28e-06  
    7   -1641.2166416813      1.01e-06  
    8   -1641.2166416843      1.87e-07  
    9   -1641.2166416844      3.08e-08  
   10   -1641.2166416844      5.34e-09  Convergence criterion met
 ---------------------------------------
 SCF time:   CPU 4.97s  wall 5.00s 
 SCF   energy in the final basis set =    -1641.2166416844
 Total energy in the final basis set =    -1641.2166416844
 
 --------------------------------------------------------------
             Orbital Energies (a.u.) and Symmetries
 --------------------------------------------------------------
 
 Alpha MOs, Restricted
 -- Occupied --                  
-323.54  -39.25  -34.45  -34.45  -34.45   -4.68   -3.17   -3.17
  1 A'    2 A'    3 A'    4 A'    1 A"    5 A'    6 A'    7 A'                 
 -3.168  -0.842  -0.654  -0.651  -0.649  -0.649  -0.636
  2 A"    8 A'    9 A'    3 A"   10 A'    4 A"   11 A'                         
 -- Virtual --                   
 -0.250  -0.172  -0.144  -0.065  -0.063  -0.037   0.026   0.028
 12 A'   13 A'    5 A"   14 A'   15 A'   16 A'   17 A'    6 A"                 
  0.060   0.084   0.149   0.156   0.211   0.247   0.263   0.480
 18 A'    7 A"   19 A'    8 A"   20 A'   21 A'   22 A'   23 A'                 
  0.861   0.892   0.900   0.900   0.901   1.048   1.252   1.647
 24 A'   25 A'    9 A"   26 A'   10 A"   27 A'   11 A"   28 A'                 
  1.754   1.825   1.939   3.023   5.596   5.596   5.597   5.599
 29 A'   12 A"   30 A'   31 A'   13 A"   32 A'   14 A"   15 A"                 
  5.599   5.611   5.613
 33 A'   34 A'   35 A'                                                         
 
 Beta MOs, Restricted
 -- Occupied --                  
-323.54  -39.25  -34.45  -34.45  -34.45   -4.68   -3.17   -3.17
  1 A'    2 A'    3 A'    4 A'    1 A"    5 A'    6 A'    7 A'                 
 -3.168  -0.842  -0.654  -0.651  -0.649  -0.649  -0.636
  2 A"    8 A'    9 A'    3 A"   10 A'    4 A"   11 A'                         
 -- Virtual --                   
 -0.250  -0.172  -0.144  -0.065  -0.063  -0.037   0.026   0.028
 12 A'   13 A'    5 A"   14 A'   15 A'   16 A'   17 A'    6 A"                 
  0.060   0.084   0.149   0.156   0.211   0.247   0.263   0.480
 18 A'    7 A"   19 A'    8 A"   20 A'   21 A'   22 A'   23 A'                 
  0.861   0.892   0.900   0.900   0.901   1.048   1.252   1.647
 24 A'   25 A'    9 A"   26 A'   10 A"   27 A'   11 A"   28 A'                 
  1.754   1.825   1.939   3.023   5.596   5.596   5.597   5.599
 29 A'   12 A"   30 A'   31 A'   13 A"   32 A'   14 A"   15 A"                 
  5.599   5.611   5.613
 33 A'   34 A'   35 A'                                                         
 --------------------------------------------------------------
 
          Ground-State Mulliken Net Atomic Charges

     Atom                 Charge (a.u.)
  ----------------------------------------
      1 Cu                    0.720452
      2 H                     0.139959
      3 H                     0.139589
  ----------------------------------------
  Sum of atomic charges =     1.000000

 -----------------------------------------------------------------
                    Cartesian Multipole Moments
 -----------------------------------------------------------------
    Charge (ESU x 10^10)
                 4.8032
    Dipole Moment (Debye)
         X       0.0350      Y       0.0002      Z       0.0000
       Tot       0.0350
    Quadrupole Moments (Debye-Ang)
        XX      -7.5758     XY       0.0001     YY     -10.2927
        XZ       0.0000     YZ      -0.0000     ZZ     -10.9776
    Octopole Moments (Debye-Ang^2)
       XXX      -0.3047    XXY      -0.0001    XYY       0.7158
       YYY      -0.0011    XXZ      -0.0000    XYZ       0.0000
       YYZ       0.0000    XZZ       1.8296    YZZ      -0.0003
       ZZZ       0.0000
    Hexadecapole Moments (Debye-Ang^3)
      XXXX     -20.5422   XXXY      -0.0011   XXYY      -4.6631
      XYYY      -0.0003   YYYY      -8.0221   XXXZ       0.0000
      XXYZ      -0.0000   XYYZ      -0.0000   YYYZ      -0.0000
      XXZZ      -6.3772   XYZZ      -0.0002   YYZZ      -2.5714
      XZZZ      -0.0000   YZZZ      -0.0000   ZZZZ      -7.2250
 -----------------------------------------------------------------
 Calculating analytic gradient of the SCF energy
 Gradient of SCF Energy
            1           2           3
    1  -0.0016196   0.0008050   0.0008146
    2  -0.0000019  -0.0027765   0.0027784
    3  -0.0000000   0.0000000   0.0000000
 Max gradient component =       2.778E-03
 RMS gradient           =       1.467E-03
 Gradient time:  CPU 1.36 s  wall 1.36 s

     Step 2	:
        Energy is -1641.2166416844
                            Maximum         Tolerance       Converged?
         Gradient           1.94118884e-03	3.00000000e-04	false
         Displacement       1.20420029e-01	1.20000000e-03	false
         Energy change      4.31230293e-04	1.00000000e-06	false


	OPTIMIZATION CYCLE:	3

 Scaling Magnitude of Eigenvalues
 	Minimum: -25.00000000	 Maximum: 25.00000000
 3 Hessian Eigenvalues to form next step
   0.03257631   0.31427220   0.49352578


 Minimum Search taking a RFO step
 Searching for Lambda that minimizes along all modes
	Value of Lambda  -0.00003770
	Norm of Stepsize  0.02773177
	RMS of Stepsize  0.01601095

	Performing Iterative Coordinate Back-Transformation

	  Starting from Previous Position

	  iter:	0	rms: 5.3990980435e-03	maxdev: 1.3171686885e-02
	  iter:	1	rms: 1.2767917424e-06	maxdev: 2.7177495742e-06
	  iter:	2	rms: 3.0497228821e-13	maxdev: 7.3895735679e-13	 Success!

	Finished Iterative Coordinate Back-Transformation
 ----------------------------------------------------------------
             Standard Nuclear Orientation (Angstroms)
    I     Atom           X                Y                Z
 ----------------------------------------------------------------
    1      Cu      0.1502426569     0.0000600109    -0.0000000000
    2      H      -1.5478760287     0.3978873360    -0.0000000000
    3      H      -1.5477782324    -0.3980259603     0.0000000000
 ----------------------------------------------------------------
 Molecular Point Group                 Cs    NOp =  2
 Largest Abelian Subgroup              Cs    NOp =  2
 Nuclear Repulsion Energy =          18.26280202 hartrees
 There are       15 alpha and       15 beta electrons

                       Distance Matrix (Angstroms)
             Cu(  1)   H (  2)
   H (  2)  1.744097
   H (  3)  1.744061  0.795913
 
 Applying Cartesian multipole field
    Component          Value
    ---------          -----
     (2,0,0)        1.00000E-11
     (0,2,0)        2.00000E-11
     (0,0,2)       -3.00000E-11
 Nucleus-field energy     = 2.1710748155e-10 hartrees
 Requested basis set is def2-SVPD
 There are 20 shells and 50 basis functions
 A cutoff of  1.0D-12 yielded    210 shell pairs
 There are      1340 function pairs (      1639 Cartesian)
 Smallest overlap matrix eigenvalue = 4.04E-04
 Guess MOs from SCF MO coefficient file

 -----------------------------------------------------------------------
  General SCF calculation program by
  Eric Jon Sundstrom, Paul Horn, Yuezhi Mao, Dmitri Zuev, Alec White,
  David Stuck, Shaama M.S., Shane Yost, Joonho Lee, David Small,
  Daniel Levine, Susi Lehtola, Hugh Burton, Evgeny Epifanovsky,
  Bang C. Huynh
 -----------------------------------------------------------------------
 Exchange:     0.2220 Hartree-Fock + 1.0000 wB97X-D + LR-HF
 Correlation:  1.0000 wB97X-D
 Using SG-2 standard quadrature grid
 Dispersion:   Grimme D
 A restricted SCF calculation will be
 performed using DIIS
 SCF converges when DIIS error is below 1.0e-08
 ---------------------------------------
  Cycle       Energy         DIIS error
 ---------------------------------------
    1   -1641.2166560882      2.09e-04  
    2   -1641.2166634353      4.20e-05  
    3   -1641.2166638266      4.42e-05  
    4   -1641.2166642262      1.34e-05  
    5   -1641.2166643149      3.06e-06  
    6   -1641.2166643303      1.05e-06  
    7   -1641.2166643336      2.04e-07  
    8   -1641.2166643338      4.10e-08  
    9   -1641.2166643338      7.23e-09  Convergence criterion met
 ---------------------------------------
 SCF time:   CPU 4.47s  wall 4.00s 
 SCF   energy in the final basis set =    -1641.2166643338
 Total energy in the final basis set =    -1641.2166643338
 
 --------------------------------------------------------------
             Orbital Energies (a.u.) and Symmetries
 --------------------------------------------------------------
 
 Alpha MOs, Restricted
 -- Occupied --                  
-323.54  -39.25  -34.45  -34.45  -34.45   -4.68   -3.17   -3.17
  1 A'    2 A'    3 A'    4 A'    1 A"    5 A'    6 A'    7 A'                 
 -3.168  -0.840  -0.653  -0.650  -0.648  -0.648  -0.636
  2 A"    8 A'    9 A'    3 A"   10 A'    4 A"   11 A'                         
 -- Virtual --                   
 -0.251  -0.172  -0.144  -0.065  -0.064  -0.037   0.026   0.028
 12 A'   13 A'    5 A"   14 A'   15 A'   16 A'   17 A'    6 A"                 
  0.060   0.084   0.149   0.156   0.211   0.246   0.262   0.481
 18 A'    7 A"   19 A'    8 A"   20 A'   21 A'   22 A'   23 A'                 
  0.861   0.892   0.896   0.899   0.902   1.047   1.251   1.645
 24 A'   25 A'   26 A'    9 A"   10 A"   27 A'   11 A"   28 A'                 
  1.751   1.825   1.936   3.020   5.597   5.597   5.598   5.600
 29 A'   12 A"   30 A'   31 A'   13 A"   32 A'   14 A"   15 A"                 
  5.600   5.611   5.612
 33 A'   34 A'   35 A'                                                         
 
 Beta MOs, Restricted
 -- Occupied --                  
-323.54  -39.25  -34.45  -34.45  -34.45   -4.68   -3.17   -3.17
  1 A'    2 A'    3 A'    4 A'    1 A"    5 A'    6 A'    7 A'                 
 -3.168  -0.840  -0.653  -0.650  -0.648  -0.648  -0.636
  2 A"    8 A'    9 A'    3 A"   10 A'    4 A"   11 A'                         
 -- Virtual --                   
 -0.251  -0.172  -0.144  -0.065  -0.064  -0.037   0.026   0.028
 12 A'   13 A'    5 A"   14 A'   15 A'   16 A'   17 A'    6 A"                 
  0.060   0.084   0.149   0.156   0.211   0.246   0.262   0.481
 18 A'    7 A"   19 A'    8 A"   20 A'   21 A'   22 A'   23 A'                 
  0.861   0.892   0.896   0.899   0.902   1.047   1.251   1.645
 24 A'   25 A'   26 A'    9 A"   10 A"   27 A'   11 A"   28 A'                 
  1.751   1.825   1.936   3.020   5.597   5.597   5.598   5.600
 29 A'   12 A"   30 A'   31 A'   13 A"   32 A'   14 A"   15 A"                 
  5.600   5.611   5.612
 33 A'   34 A'   35 A'                                                         
 --------------------------------------------------------------
 
          Ground-State Mulliken Net Atomic Charges

     Atom                 Charge (a.u.)
  ----------------------------------------
      1 Cu                    0.722942
      2 H                     0.138610
      3 H                     0.138448
  ----------------------------------------
  Sum of atomic charges =     1.000000

 -----------------------------------------------------------------
                    Cartesian Multipole Moments
 -----------------------------------------------------------------
    Charge (ESU x 10^10)
                 4.8032
    Dipole Moment (Debye)
         X       0.0563      Y       0.0003      Z       0.0000
       Tot       0.0563
    Quadrupole Moments (Debye-Ang)
        XX      -7.5560     XY       0.0002     YY     -10.2846
        XZ      -0.0000     YZ       0.0000     ZZ     -10.9700
    Octopole Moments (Debye-Ang^2)
       XXX      -0.4726    XXY      -0.0004    XYY       0.6531
       YYY      -0.0013    XXZ       0.0000    XYZ      -0.0000
       YYZ       0.0000    XZZ       1.7720    YZZ      -0.0004
       ZZZ       0.0000
    Hexadecapole Moments (Debye-Ang^3)
      XXXX     -20.7439   XXXY      -0.0008   XXYY      -4.6859
      XYYY      -0.0004   YYYY      -8.0089   XXXZ      -0.0000
      XXYZ       0.0000   XYYZ      -0.0000   YYYZ       0.0000
      XXZZ      -6.4088   XYZZ      -0.0002   YYZZ      -2.5657
      XZZZ      -0.0000   YZZZ       0.0000   ZZZZ      -7.2039
 -----------------------------------------------------------------
 Calculating analytic gradient of the SCF energy
 Gradient of SCF Energy
            1           2           3
    1  -0.0002193   0.0001075   0.0001118
    2  -0.0000009  -0.0018011   0.0018020
    3  -0.0000000   0.0000000   0.0000000
 Max gradient component =       1.802E-03
 RMS gradient           =       8.540E-04
 Gradient time:  CPU 1.36 s  wall 1.36 s

     Step 3	:
        Energy is -1641.2166643338
                            Maximum         Tolerance       Converged?
         Gradient           1.51356423e-03	3.00000000e-04	false
         Displacement       2.67304292e-02	1.20000000e-03	false
         Energy change      2.26493923e-05	1.00000000e-06	false


	OPTIMIZATION CYCLE:	4

 Scaling Magnitude of Eigenvalues
 	Minimum: -25.00000000	 Maximum: 25.00000000
 3 Hessian Eigenvalues to form next step
   0.03643431   0.31427060   0.34775510


 Minimum Search taking a RFO step
 Searching for Lambda that minimizes along all modes
	Value of Lambda  -0.00000862
	Norm of Stepsize  0.00632324
	RMS of Stepsize  0.00365073

	Performing Iterative Coordinate Back-Transformation

	  Starting from Previous Position

	  iter:	0	rms: 1.2706763766e-03	maxdev: 2.2364083030e-03
	  iter:	1	rms: 1.6240902552e-07	maxdev: 3.4311864325e-07	 Success!

	Finished Iterative Coordinate Back-Transformation
 ----------------------------------------------------------------
             Standard Nuclear Orientation (Angstroms)
    I     Atom           X                Y                Z
 ----------------------------------------------------------------
    1      Cu      0.1511638795     0.0000623028    -0.0000000000
    2      H      -1.5483320453     0.3990685942    -0.0000000000
    3      H      -1.5482434384    -0.3992095104     0.0000000000
 ----------------------------------------------------------------
 Molecular Point Group                 Cs    NOp =  2
 Largest Abelian Subgroup              Cs    NOp =  2
 Nuclear Repulsion Energy =          18.24454781 hartrees
 There are       15 alpha and       15 beta electrons

                       Distance Matrix (Angstroms)
             Cu(  1)   H (  2)
   H (  2)  1.745707
   H (  3)  1.745681  0.798278
 
 Applying Cartesian multipole field
    Component          Value
    ---------          -----
     (2,0,0)        1.00000E-11
     (0,2,0)        2.00000E-11
     (0,0,2)       -3.00000E-11
 Nucleus-field energy     = 2.1763151376e-10 hartrees
 Requested basis set is def2-SVPD
 There are 20 shells and 50 basis functions
 A cutoff of  1.0D-12 yielded    210 shell pairs
 There are      1340 function pairs (      1639 Cartesian)
 Smallest overlap matrix eigenvalue = 4.10E-04
 Guess MOs from SCF MO coefficient file

 -----------------------------------------------------------------------
  General SCF calculation program by
  Eric Jon Sundstrom, Paul Horn, Yuezhi Mao, Dmitri Zuev, Alec White,
  David Stuck, Shaama M.S., Shane Yost, Joonho Lee, David Small,
  Daniel Levine, Susi Lehtola, Hugh Burton, Evgeny Epifanovsky,
  Bang C. Huynh
 -----------------------------------------------------------------------
 Exchange:     0.2220 Hartree-Fock + 1.0000 wB97X-D + LR-HF
 Correlation:  1.0000 wB97X-D
 Using SG-2 standard quadrature grid
 Dispersion:   Grimme D
 A restricted SCF calculation will be
 performed using DIIS
 SCF converges when DIIS error is below 1.0e-08
 ---------------------------------------
  Cycle       Energy         DIIS error
 ---------------------------------------
    1   -1641.2166688916      5.06e-05  
    2   -1641.2166696450      1.46e-05  
    3   -1641.2166696335      1.87e-05  
    4   -1641.2166696932      1.00e-06  
    5   -1641.2166696945      4.01e-07  
    6   -1641.2166696948      1.99e-07  
    7   -1641.2166696948      4.66e-08  
    8   -1641.2166696948      6.74e-09  Convergence criterion met
 ---------------------------------------
 SCF time:   CPU 3.98s  wall 4.00s 
 SCF   energy in the final basis set =    -1641.2166696948
 Total energy in the final basis set =    -1641.2166696948
 
 --------------------------------------------------------------
             Orbital Energies (a.u.) and Symmetries
 --------------------------------------------------------------
 
 Alpha MOs, Restricted
 -- Occupied --                  
-323.54  -39.25  -34.45  -34.45  -34.45   -4.68   -3.17   -3.17
  1 A'    2 A'    3 A'    4 A'    1 A"    5 A'    6 A'    7 A'                 
 -3.167  -0.839  -0.653  -0.650  -0.648  -0.648  -0.636
  2 A"    8 A'    9 A'    3 A"   10 A'    4 A"   11 A'                         
 -- Virtual --                   
 -0.251  -0.172  -0.144  -0.065  -0.064  -0.037   0.026   0.028
 12 A'   13 A'    5 A"   14 A'   15 A'   16 A'   17 A'    6 A"                 
  0.060   0.083   0.149   0.156   0.211   0.246   0.262   0.482
 18 A'    7 A"   19 A'    8 A"   20 A'   21 A'   22 A'   23 A'                 
  0.860   0.892   0.896   0.899   0.902   1.047   1.251   1.643
 24 A'   25 A'   26 A'    9 A"   10 A"   27 A'   11 A"   28 A'                 
  1.750   1.824   1.934   3.010   5.597   5.597   5.598   5.600
 29 A'   12 A"   30 A'   31 A'   13 A"   32 A'   14 A"   15 A"                 
  5.600   5.611   5.612
 33 A'   34 A'   35 A'                                                         
 
 Beta MOs, Restricted
 -- Occupied --                  
-323.54  -39.25  -34.45  -34.45  -34.45   -4.68   -3.17   -3.17
  1 A'    2 A'    3 A'    4 A'    1 A"    5 A'    6 A'    7 A'                 
 -3.167  -0.839  -0.653  -0.650  -0.648  -0.648  -0.636
  2 A"    8 A'    9 A'    3 A"   10 A'    4 A"   11 A'                         
 -- Virtual --                   
 -0.251  -0.172  -0.144  -0.065  -0.064  -0.037   0.026   0.028
 12 A'   13 A'    5 A"   14 A'   15 A'   16 A'   17 A'    6 A"                 
  0.060   0.083   0.149   0.156   0.211   0.246   0.262   0.482
 18 A'    7 A"   19 A'    8 A"   20 A'   21 A'   22 A'   23 A'                 
  0.860   0.892   0.896   0.899   0.902   1.047   1.251   1.643
 24 A'   25 A'   26 A'    9 A"   10 A"   27 A'   11 A"   28 A'                 
  1.750   1.824   1.934   3.010   5.597   5.597   5.598   5.600
 29 A'   12 A"   30 A'   31 A'   13 A"   32 A'   14 A"   15 A"                 
  5.600   5.611   5.612
 33 A'   34 A'   35 A'                                                         
 --------------------------------------------------------------
 
          Ground-State Mulliken Net Atomic Charges

     Atom                 Charge (a.u.)
  ----------------------------------------
      1 Cu                    0.723034
      2 H                     0.138539
      3 H                     0.138427
  ----------------------------------------
  Sum of atomic charges =     1.000000

 -----------------------------------------------------------------
                    Cartesian Multipole Moments
 -----------------------------------------------------------------
    Charge (ESU x 10^10)
                 4.8032
    Dipole Moment (Debye)
         X       0.0580      Y       0.0003      Z       0.0000
       Tot       0.0580
    Quadrupole Moments (Debye-Ang)
        XX      -7.5508     XY       0.0002     YY     -10.2835
        XZ       0.0000     YZ      -0.0000     ZZ     -10.9726
    Octopole Moments (Debye-Ang^2)
       XXX      -0.4957    XXY      -0.0004    XYY       0.6429
       YYY      -0.0014    XXZ      -0.0000    XYZ       0.0000
       YYZ       0.0000    XZZ       1.7683    YZZ      -0.0004
       ZZZ       0.0000
    Hexadecapole Moments (Debye-Ang^3)
      XXXX     -20.7783   XXXY      -0.0008   XXYY      -4.6862
      XYYY      -0.0004   YYYY      -8.0178   XXXZ      -0.0000
      XXYZ      -0.0000   XYYZ      -0.0000   YYYZ       0.0000
      XXZZ      -6.4193   XYZZ      -0.0002   YYZZ      -2.5682
      XZZZ      -0.0000   YZZZ       0.0000   ZZZZ      -7.2083
 -----------------------------------------------------------------
 Calculating analytic gradient of the SCF energy
 Gradient of SCF Energy
            1           2           3
    1   0.0000399  -0.0000217  -0.0000182
    2  -0.0000006  -0.0004960   0.0004966
    3  -0.0000000   0.0000000  -0.0000000
 Max gradient component =       4.966E-04
 RMS gradient           =       2.345E-04
 Gradient time:  CPU 1.36 s  wall 1.36 s

     Step 4	:
        Energy is -1641.2166696948
                            Maximum         Tolerance       Converged?
         Gradient           4.49061285e-04	3.00000000e-04	false
         Displacement       5.52400616e-03	1.20000000e-03	false
         Energy change      5.36109178e-06	1.00000000e-06	false


	OPTIMIZATION CYCLE:	5

 Scaling Magnitude of Eigenvalues
 	Minimum: -25.00000000	 Maximum: 25.00000000
 3 Hessian Eigenvalues to form next step
   0.03876670   0.24671402   0.31427684


 Minimum Search taking a RFO step
 Searching for Lambda that minimizes along all modes
	Value of Lambda  -0.00000092
	Norm of Stepsize  0.00216352
	RMS of Stepsize  0.00124911

	Performing Iterative Coordinate Back-Transformation

	  Starting from Previous Position

	  iter:	0	rms: 4.8490022286e-04	maxdev: 8.9694248282e-04
	  iter:	1	rms: 4.5027919536e-08	maxdev: 1.0403980389e-07	 Success!

	Finished Iterative Coordinate Back-Transformation
 ----------------------------------------------------------------
             Standard Nuclear Orientation (Angstroms)
    I     Atom           X                Y                Z
 ----------------------------------------------------------------
    1      Cu      0.1508556838     0.0000627389    -0.0000000000
    2      H      -1.5481770205     0.3995427830    -0.0000000000
    3      H      -1.5480902676    -0.3996841353     0.0000000000
 ----------------------------------------------------------------
 Molecular Point Group                 Cs    NOp =  2
 Largest Abelian Subgroup              Cs    NOp =  2
 Nuclear Repulsion Energy =          18.24720084 hartrees
 There are       15 alpha and       15 beta electrons

                       Distance Matrix (Angstroms)
             Cu(  1)   H (  2)
   H (  2)  1.745364
   H (  3)  1.745341  0.799227
 
 Applying Cartesian multipole field
    Component          Value
    ---------          -----
     (2,0,0)        1.00000E-11
     (0,2,0)        2.00000E-11
     (0,0,2)       -3.00000E-11
 Nucleus-field energy     = 2.1755516732e-10 hartrees
 Requested basis set is def2-SVPD
 There are 20 shells and 50 basis functions
 A cutoff of  1.0D-12 yielded    210 shell pairs
 There are      1340 function pairs (      1639 Cartesian)
 Smallest overlap matrix eigenvalue = 4.12E-04
 Guess MOs from SCF MO coefficient file

 -----------------------------------------------------------------------
  General SCF calculation program by
  Eric Jon Sundstrom, Paul Horn, Yuezhi Mao, Dmitri Zuev, Alec White,
  David Stuck, Shaama M.S., Shane Yost, Joonho Lee, David Small,
  Daniel Levine, Susi Lehtola, Hugh Burton, Evgeny Epifanovsky,
  Bang C. Huynh
 -----------------------------------------------------------------------
 Exchange:     0.2220 Hartree-Fock + 1.0000 wB97X-D + LR-HF
 Correlation:  1.0000 wB97X-D
 Using SG-2 standard quadrature grid
 Dispersion:   Grimme D
 A restricted SCF calculation will be
 performed using DIIS
 SCF converges when DIIS error is below 1.0e-08
 ---------------------------------------
  Cycle       Energy         DIIS error
 ---------------------------------------
    1   -1641.2166700644      1.53e-05  
    2   -1641.2166701733      3.47e-06  
    3   -1641.2166701760      5.11e-06  
    4   -1641.2166701803      5.36e-07  
    5   -1641.2166701807      1.55e-07  
    6   -1641.2166701807      4.56e-08  
    7   -1641.2166701807      1.38e-08  
    8   -1641.2166701807      3.80e-09  Convergence criterion met
 ---------------------------------------
 SCF time:   CPU 3.97s  wall 4.00s 
 SCF   energy in the final basis set =    -1641.2166701807
 Total energy in the final basis set =    -1641.2166701807
 
 --------------------------------------------------------------
             Orbital Energies (a.u.) and Symmetries
 --------------------------------------------------------------
 
 Alpha MOs, Restricted
 -- Occupied --                  
-323.54  -39.25  -34.45  -34.45  -34.45   -4.68   -3.17   -3.17
  1 A'    2 A'    3 A'    4 A'    1 A"    5 A'    6 A'    7 A'                 
 -3.168  -0.839  -0.653  -0.650  -0.648  -0.648  -0.636
  2 A"    8 A'    9 A'    3 A"   10 A'    4 A"   11 A'                         
 -- Virtual --                   
 -0.251  -0.172  -0.144  -0.065  -0.064  -0.037   0.026   0.028
 12 A'   13 A'    5 A"   14 A'   15 A'   16 A'   17 A'    6 A"                 
  0.060   0.083   0.149   0.156   0.211   0.246   0.262   0.482
 18 A'    7 A"   19 A'    8 A"   20 A'   21 A'   22 A'   23 A'                 
  0.859   0.892   0.896   0.899   0.902   1.047   1.251   1.642
 24 A'   25 A'   26 A'    9 A"   10 A"   27 A'   11 A"   28 A'                 
  1.750   1.823   1.933   3.006   5.597   5.597   5.598   5.600
 29 A'   12 A"   30 A'   31 A'   13 A"   32 A'   14 A"   15 A"                 
  5.600   5.611   5.612
 33 A'   34 A'   35 A'                                                         
 
 Beta MOs, Restricted
 -- Occupied --                  
-323.54  -39.25  -34.45  -34.45  -34.45   -4.68   -3.17   -3.17
  1 A'    2 A'    3 A'    4 A'    1 A"    5 A'    6 A'    7 A'                 
 -3.168  -0.839  -0.653  -0.650  -0.648  -0.648  -0.636
  2 A"    8 A'    9 A'    3 A"   10 A'    4 A"   11 A'                         
 -- Virtual --                   
 -0.251  -0.172  -0.144  -0.065  -0.064  -0.037   0.026   0.028
 12 A'   13 A'    5 A"   14 A'   15 A'   16 A'   17 A'    6 A"                 
  0.060   0.083   0.149   0.156   0.211   0.246   0.262   0.482
 18 A'    7 A"   19 A'    8 A"   20 A'   21 A'   22 A'   23 A'                 
  0.859   0.892   0.896   0.899   0.902   1.047   1.251   1.642
 24 A'   25 A'   26 A'    9 A"   10 A"   27 A'   11 A"   28 A'                 
  1.750   1.823   1.933   3.006   5.597   5.597   5.598   5.600
 29 A'   12 A"   30 A'   31 A'   13 A"   32 A'   14 A"   15 A"                 
  5.600   5.611   5.612
 33 A'   34 A'   35 A'                                                         
 --------------------------------------------------------------
 
          Ground-State Mulliken Net Atomic Charges

     Atom                 Charge (a.u.)
  ----------------------------------------
      1 Cu                    0.722804
      2 H                     0.138649
      3 H                     0.138546
  ----------------------------------------
  Sum of atomic charges =     1.000000

 -----------------------------------------------------------------
                    Cartesian Multipole Moments
 -----------------------------------------------------------------
    Charge (ESU x 10^10)
                 4.8032
    Dipole Moment (Debye)
         X       0.0565      Y       0.0003      Z       0.0000
       Tot       0.0565
    Quadrupole Moments (Debye-Ang)
        XX      -7.5505     XY       0.0002     YY     -10.2839
        XZ      -0.0000     YZ       0.0000     ZZ     -10.9745
    Octopole Moments (Debye-Ang^2)
       XXX      -0.4887    XXY      -0.0004    XYY       0.6447
       YYY      -0.0014    XXZ       0.0000    XYZ      -0.0000
       YYZ       0.0000    XZZ       1.7726    YZZ      -0.0004
       ZZZ       0.0000
    Hexadecapole Moments (Debye-Ang^3)
      XXXX     -20.7725   XXXY      -0.0007   XXYY      -4.6839
      XYYY      -0.0004   YYYY      -8.0232   XXXZ      -0.0000
      XXYZ       0.0000   XYYZ      -0.0000   YYYZ       0.0000
      XXZZ      -6.4207   XYZZ      -0.0002   YYZZ      -2.5699
      XZZZ      -0.0000   YZZZ       0.0000   ZZZZ      -7.2124
 -----------------------------------------------------------------
 Calculating analytic gradient of the SCF energy
 Gradient of SCF Energy
            1           2           3
    1   0.0000202  -0.0000118  -0.0000084
    2  -0.0000006  -0.0000166   0.0000171
    3  -0.0000000  -0.0000000   0.0000000
 Max gradient component =       2.020E-05
 RMS gradient           =       1.148E-05
 Gradient time:  CPU 1.36 s  wall 1.36 s

     Step 5	:
        Energy is -1641.2166701807
                            Maximum         Tolerance       Converged?
         Gradient           2.12640674e-05	3.00000000e-04	true
         Displacement       2.14424826e-03	1.20000000e-03	false
         Energy change      4.85872988e-07	1.00000000e-06	true

	 Optimization Converged in 5 cycles

 *****************************************************
             End of BFGS Algorithm
 *****************************************************
		----------------------------------
		   Verification of Optimization
		----------------------------------

 Eigenvalues of Hessian in Optimization Verification
   0.03746166   0.24208873   0.31429336


 Found a minimum
		---------------------------------
		       End of Verification
		---------------------------------

 Final energy is -1641.216670180719

	******************************
	**  OPTIMIZATION CONVERGED  **
	******************************
 ----------------------------------------------------------------
             Standard Nuclear Orientation (Angstroms)
    I     Atom           X                Y                Z
 ----------------------------------------------------------------
    1      Cu      0.1508556838     0.0000627389    -0.0000000000
    2      H      -1.5481770205     0.3995427830    -0.0000000000
    3      H      -1.5480902676    -0.3996841353     0.0000000000
 ----------------------------------------------------------------
 Molecular Point Group                 Cs    NOp =  2
 Largest Abelian Subgroup              Cs    NOp =  2
 Nuclear Repulsion Energy =          18.24720084 hartrees
 There are       15 alpha and       15 beta electrons

Z-matrix Print:
$molecule
1 1
Cu
H  1 1.745341
H  2 0.799227 1 76.765863
$end

 -----------------------------------------------------------------------
                  END OF GEOMETRY OPTIMIZER USING LIBOPT3               
 -----------------------------------------------------------------------
 Total job time:  36.19s(wall), 36.22s(cpu) 
 Wed Feb  8 12:51:37 2023

        *************************************************************
        *                                                           *
        *  Thank you very much for using Q-Chem.  Have a nice day.  *
        *                                                           *
        *************************************************************



Running Job 2 of 2 input
qchem input_9595.1 /aimm/scratch/qchem9595/ 0
/home/epif/aimm/qcprog.exe_s input_9595.1 /aimm/scratch/qchem9595/
8388608
                  Welcome to Q-Chem
     A Quantum Leap Into The Future Of Chemistry


 Q-Chem 6.0, Q-Chem, Inc., Pleasanton, CA (2022)

 E. Epifanovsky,  A. T. B. Gilbert,  Xintian Feng,  Joonho Lee,  Yuezhi Mao,  
 N. Mardirossian,  P. Pokhilko,  A. White,  M. Wormit,  M. P. Coons,  
 A. L. Dempwolff,  Zhengting Gan,  D. Hait,  P. R. Horn,  L. D. Jacobson,  
 I. Kaliman,  J. Kussmann,  A. W. Lange,  Ka Un Lao,  D. S. Levine,  Jie Liu,  
 S. C. McKenzie,  A. F. Morrison,  K. Nanda,  F. Plasser,  D. R. Rehn,  
 M. L. Vidal,  Zhi-Qiang You,  Ying Zhu,  B. Alam,  B. Albrecht,  
 A. Aldossary,  E. Alguire,  J. H. Andersen,  V. Athavale,  D. Barton,  
 K. Begam,  A. Behn,  N. Bellonzi,  Y. A. Bernard,  E. J. Berquist,  
 H. Burton,  A. Carreras,  K. Carter-Fenk,  Romit Chakraborty,  
 Chandrima Chakravarty,  Junhan Chen,  A. D. Chien,  K. D. Closser,  
 V. Cofer-Shabica,  L. Cunha,  S. Dasgupta,  Jia Deng,  M. de Wergifosse,  
 M. Diedenhofen,  Hainam Do,  S. Ehlert,  Po-Tung Fang,  S. Fatehi,  
 Qingguo Feng,  T. Friedhoff,  B. Ganoe,  J. Gayvert,  Qinghui Ge,  
 G. Gidofalvi,  M. Goldey,  J. Gomes,  C. Gonzalez-Espinoza,  S. Gulania,  
 A. Gunina,  J. A. Gyamfi,  M. W. D. Hanson-Heine,  P. H. P. Harbach,  
 A. W. Hauser,  M. F. Herbst,  M. Hernandez Vera,  M. Hodecker,  
 Z. C. Holden,  S. Houck,  Xunkun Huang,  Kerwin Hui,  B. C. Huynh,  
 K. Ikeda,  M. Ivanov,  Hyunjun Ji,  Zuxin Jin,  Hanjie Jiang,  B. Kaduk,  
 S. Kaehler,  R. Kang,  K. Khistyaev,  Jaehoon Kim,  Yongbin Kim,  
 P. Klunzinger,  Z. Koczor-Benda,  Joong Hoon Koh,  D. Kosenkov,  
 Saikiran Kotaru,  L. Koulias,  T. Kowalczyk,  C. M. Krauter,  K. Kue,  
 A. Kunitsa,  T. Kus,  A. Landau,  K. V. Lawler,  D. Lefrancois,  S. Lehtola,  
 Rain Li,  Shaozhi Li,  Yi-Pei Li,  Jiashu Liang,  M. Liebenthal,  
 Hung-Hsuan Lin,  You-Sheng Lin,  Fenglai Liu,  Kuan-Yu Liu,  
 M. Loipersberger,  A. Luenser,  C. Malbon,  A. Manjanath,  P. Manohar,  
 E. Mansoor,  S. F. Manzer,  Shan-Ping Mao,  A. V. Marenich,  T. Markovich,  
 S. Mason,  F. Matz,  S. A. Maurer,  P. F. McLaughlin,  M. F. S. J. Menger,  
 J.-M. Mewes,  S. A. Mewes,  P. Morgante,  Mohammad Mostafanejad,  
 J. W. Mullinax,  K. J. Oosterbaan,  G. Paran,  V. Parravicini,  
 Alexander C. Paul,  Suranjan K. Paul,  F. Pavosevic,  Zheng Pei,  S. Prager,  
 E. I. Proynov,  E. Ramos,  B. Rana,  A. E. Rask,  A. Rettig,  R. M. Richard,  
 F. Rob,  E. Rossomme,  T. Scheele,  M. Scheurer,  M. Schneider,  
 P. E. Schneider,  N. Sergueev,  S. M. Sharada,  Hengyuan Shen,  
 W. Skomorowski,  D. W. Small,  C. J. Stein,  Yingli Su,  Yu-Chuan Su,  
 E. J. Sundstrom,  Zhen Tao,  J. Thirman,  Hung-Yi Tsai,  T. Tsuchimochi,  
 N. M. Tubman,  C. Utku,  S. P. Veccham,  O. Vydrov,  J. Wenzel,  
 Jonathan Wong,  J. Witte,  A. Yamada,  Chou-Hsun Yang,  Kun Yao,  
 S. Yeganeh,  S. R. Yost,  A. Zech,  F. Zeller,  Igor Ying Zhang,  
 Xing Zhang,  Yu Zhang,  D. Zuev,  A. Aspuru-Guzik,  A. T. Bell,  
 N. A. Besley,  K. B. Bravaya,  B. R. Brooks,  D. Casanova,  Jeng-Da Chai,  
 Hsing-Ta Chen,  S. Coriani,  C. J. Cramer,  A. E. DePrince, III,  
 R. A. DiStasio Jr.,  A. Dreuw,  B. D. Dunietz,  T. R. Furlani,  
 W. A. Goddard III,  S. Grimme,  S. Hammes-Schiffer,  T. Head-Gordon,  
 W. J. Hehre,  Chao-Ping Hsu,  T.-C. Jagau,  Yousung Jung,  A. Klamt,  
 Jing Kong,  D. S. Lambrecht,  Xiangyuan Li,  WanZhen Liang,  N. J. Mayhall,  
 C. W. McCurdy,  J. B. Neaton,  T. Neudecker,  C. Ochsenfeld,  
 J. A. Parkhill,  R. Peverati,  V. A. Rassolov,  Haisheng Ren,  Yihan Shao,  
 L. V. Slipchenko,  R. P. Steele,  J. E. Subotnik,  A. J. W. Thom,  
 A. Tkatchenko,  D. G. Truhlar,  T. Van Voorhis,  Fan Wang,  
 T. A. Wesolowski,  K. B. Whaley,  H. L. Woodcock III,  P. M. Zimmerman,  
 S. Faraji,  P. M. W. Gill,  M. Head-Gordon,  J. M. Herbert,  A. I. Krylov

 Contributors to earlier versions of Q-Chem not listed above: 
 R. D. Adamson,  B. Austin,  R. Baer,  J. Baker,  G. J. O. Beran,  
 K. Brandhorst,  S. T. Brown,  E. F. C. Byrd,  Arup K. Chakraborty,  
 G. K. L. Chan,  Chun-Min Chang,  Yunqing Chen,  C.-L. Cheng,  
 Siu Hung Chien,  D. M. Chipman,  D. L. Crittenden,  H. Dachsel,  
 R. J. Doerksen,  A. D. Dutoi,  R. G. Edgar,  J. Fosso-Tande,  
 L. Fusti-Molnar,  D. Ghosh,  A. Ghysels,  A. Golubeva-Zadorozhnaya,  
 J. Gonthier,  M. S. Gordon,  S. R. Gwaltney,  G. Hawkins,  J. E. Herr,  
 A. Heyden,  S. Hirata,  E. G. Hohenstein,  G. Kedziora,  F. J. Keil,  
 C. Kelley,  Jihan Kim,  R. A. King,  R. Z. Khaliullin,  P. P. Korambath,  
 W. Kurlancheek,  A. Laurent,  A. M. Lee,  M. S. Lee,  S. V. Levchenko,  
 Ching Yeh Lin,  D. Liotard,  E. Livshits,  R. C. Lochan,  I. Lotan,  
 L. A. Martinez-Martinez,  P. E. Maslen,  N. Nair,  D. P. O'Neill,  
 D. Neuhauser,  E. Neuscamman,  C. M. Oana,  R. Olivares-Amaya,  R. Olson,  
 T. M. Perrine,  B. Peters,  P. A. Pieniazek,  A. Prociuk,  Y. M. Rhee,  
 J. Ritchie,  M. A. Rohrdanz,  E. Rosta,  N. J. Russ,  H. F. Schaefer III,  
 M. W. Schmidt,  N. E. Schultz,  S. Sharma,  N. Shenvi,  C. D. Sherrill,  
 A. C. Simmonett,  A. Sodt,  T. Stein,  D. Stuck,  K. S. Thanthiriwatte,  
 V. Vanovschi,  L. Vogt,  Tao Wang,  A. Warshel,  M. A. Watson,  
 C. F. Williams,  Q. Wu,  X. Xu,  Jun Yang,  W. Zhang,  Yan Zhao

   Please cite Q-Chem as follows:
  "Software for the frontiers of quantum chemistry:
   An overview of developments in the Q-Chem 5 package"
   J. Chem. Phys. 155, 084801 (2021)
   https://doi.org/10.1063/5.0055522 (open access)

 Q-Chem 6.0.0 for Intel X86 EM64T Linux

 Parts of Q-Chem use Armadillo 9.900.5 (Nocturnal Misbehaviour).
 http://arma.sourceforge.net/

 Q-Chem begins on Wed Feb  8 12:51:37 2023  

 Host: iqmol
0

     Scratch files written to /aimm/scratch/qchem9595//
 Jul222 |scratch|qcdevops|jenkins|workspace|build_RNUM 6466   
 Processing $rem in /opt/qchem/qc600/config/preferences:
 Processing $rem in /home/epif/.qchemrc:

 Checking the input file for inconsistencies... 	...done.

--------------------------------------------------------------
User input:
--------------------------------------------------------------

$molecule
read
$end

$rem
BASIS  =  def2-svpd
GUI  =  2
JOB_TYPE  =  Frequency
METHOD  =  wB97XD
SCF_CONVERGENCE  =  8
SYMMETRY  =  FALSE
$end

--------------------------------------------------------------
 ----------------------------------------------------------------
             Standard Nuclear Orientation (Angstroms)
    I     Atom           X                Y                Z
 ----------------------------------------------------------------
    1      Cu      0.1096122150     0.0000002068    -0.0000000000
    2      H      -1.5893898684     0.3996104623     0.0000000000
    3      H      -1.5893643677    -0.3996164603     0.0000000000
 ----------------------------------------------------------------
 Molecular Point Group                 Cs    NOp =  2
 Largest Abelian Subgroup              Cs    NOp =  2
 Nuclear Repulsion Energy =          18.24720084 hartrees
 There are       15 alpha and       15 beta electrons
 Requested basis set is def2-SVPD
 There are 20 shells and 50 basis functions

 Total QAlloc Memory Limit   8000 MB
 Mega-Array Size       188 MB
 MEM_STATIC part       192 MB


                       Distance Matrix (Angstroms)
             Cu(  1)   H (  2)
   H (  2)  1.745364
   H (  3)  1.745341  0.799227
 
 A cutoff of  1.0D-12 yielded    210 shell pairs
 There are      1340 function pairs (      1639 Cartesian)
 Smallest overlap matrix eigenvalue = 4.12E-04
 Guess from superposition of atomic densities
 Warning:  Energy on first SCF cycle will be non-variational
 SAD guess density has 31.000000 electrons

 -----------------------------------------------------------------------
  General SCF calculation program by
  Eric Jon Sundstrom, Paul Horn, Yuezhi Mao, Dmitri Zuev, Alec White,
  David Stuck, Shaama M.S., Shane Yost, Joonho Lee, David Small,
  Daniel Levine, Susi Lehtola, Hugh Burton, Evgeny Epifanovsky,
  Bang C. Huynh
 -----------------------------------------------------------------------
 Exchange:     0.2220 Hartree-Fock + 1.0000 wB97X-D + LR-HF
 Correlation:  1.0000 wB97X-D
 Using SG-2 standard quadrature grid
 Dispersion:   Grimme D
 A restricted SCF calculation will be
 performed using DIIS
 SCF converges when DIIS error is below 1.0e-08
 ---------------------------------------
  Cycle       Energy         DIIS error
 ---------------------------------------
    1   -1641.3330283823      5.03e-02  
    2   -1641.1621387596      1.67e-02  
    3   -1641.1516382158      1.91e-02  
    4   -1641.2164170795      4.98e-04  
    5   -1641.2166592077      1.06e-04  
    6   -1641.2166696727      1.79e-05  
    7   -1641.2166701223      5.57e-06  
    8   -1641.2166701679      2.20e-06  
    9   -1641.2166701786      9.07e-07  
   10   -1641.2166701808      1.40e-07  
   11   -1641.2166701808      1.90e-08  
   12   -1641.2166701808      4.21e-09  Convergence criterion met
 ---------------------------------------
 SCF time:   CPU 5.81s  wall 5.00s 
 SCF   energy in the final basis set =    -1641.2166701808
 Total energy in the final basis set =    -1641.2166701808
 
 --------------------------------------------------------------
             Orbital Energies (a.u.) and Symmetries
 --------------------------------------------------------------
 
 Alpha MOs, Restricted
 -- Occupied --                  
-323.54  -39.25  -34.45  -34.45  -34.45   -4.68   -3.17   -3.17
  1 A'    2 A'    3 A'    4 A'    1 A"    5 A'    6 A'    7 A'                 
 -3.168  -0.839  -0.653  -0.650  -0.648  -0.648  -0.636
  2 A"    8 A'    9 A'    3 A"   10 A'    4 A"   11 A'                         
 -- Virtual --                   
 -0.251  -0.172  -0.144  -0.065  -0.064  -0.037   0.026   0.028
 12 A'   13 A'    5 A"   14 A'   15 A'   16 A'   17 A'    6 A"                 
  0.060   0.083   0.149   0.156   0.211   0.246   0.262   0.482
 18 A'    7 A"   19 A'    8 A"   20 A'   21 A'   22 A'   23 A'                 
  0.859   0.892   0.896   0.899   0.902   1.047   1.251   1.642
 24 A'   25 A'   26 A'    9 A"   10 A"   27 A'   11 A"   28 A'                 
  1.750   1.823   1.933   3.006   5.597   5.597   5.598   5.600
 29 A'   12 A"   30 A'   31 A'   13 A"   32 A'   14 A"   15 A"                 
  5.600   5.611   5.612
 33 A'   34 A'   35 A'                                                         
 
 Beta MOs, Restricted
 -- Occupied --                  
-323.54  -39.25  -34.45  -34.45  -34.45   -4.68   -3.17   -3.17
  1 A'    2 A'    3 A'    4 A'    1 A"    5 A'    6 A'    7 A'                 
 -3.168  -0.839  -0.653  -0.650  -0.648  -0.648  -0.636
  2 A"    8 A'    9 A'    3 A"   10 A'    4 A"   11 A'                         
 -- Virtual --                   
 -0.251  -0.172  -0.144  -0.065  -0.064  -0.037   0.026   0.028
 12 A'   13 A'    5 A"   14 A'   15 A'   16 A'   17 A'    6 A"                 
  0.060   0.083   0.149   0.156   0.211   0.246   0.262   0.482
 18 A'    7 A"   19 A'    8 A"   20 A'   21 A'   22 A'   23 A'                 
  0.859   0.892   0.896   0.899   0.902   1.047   1.251   1.642
 24 A'   25 A'   26 A'    9 A"   10 A"   27 A'   11 A"   28 A'                 
  1.750   1.823   1.933   3.006   5.597   5.597   5.598   5.600
 29 A'   12 A"   30 A'   31 A'   13 A"   32 A'   14 A"   15 A"                 
  5.600   5.611   5.612
 33 A'   34 A'   35 A'                                                         
 --------------------------------------------------------------
 
          Ground-State Mulliken Net Atomic Charges

     Atom                 Charge (a.u.)
  ----------------------------------------
      1 Cu                    0.722804
      2 H                     0.138649
      3 H                     0.138546
  ----------------------------------------
  Sum of atomic charges =     1.000000

 -----------------------------------------------------------------
                    Cartesian Multipole Moments
 -----------------------------------------------------------------
    Charge (ESU x 10^10)
                 4.8032
    Dipole Moment (Debye)
         X      -0.1416      Y       0.0000      Z      -0.0000
       Tot       0.1416
    Quadrupole Moments (Debye-Ang)
        XX      -7.5470     XY      -0.0000     YY     -10.2839
        XZ       0.0000     YZ       0.0000     ZZ     -10.9745
    Octopole Moments (Debye-Ang^2)
       XXX       0.4455    XXY       0.0001    XYY       1.0689
       YYY       0.0000    XXZ      -0.0000    XYZ      -0.0000
       YYZ      -0.0000    XZZ       2.2252    YZZ       0.0000
       ZZZ      -0.0000
    Hexadecapole Moments (Debye-Ang^3)
      XXXX     -20.7689   XXXY      -0.0002   XXYY      -4.7545
      XYYY      -0.0000   YYYY      -8.0232   XXXZ       0.0000
      XXYZ       0.0000   XYYZ       0.0000   YYYZ      -0.0000
      XXZZ      -6.5856   XYZZ      -0.0000   YYZZ      -2.5699
      XZZZ       0.0000   YZZZ      -0.0000   ZZZZ      -7.2124
 -----------------------------------------------------------------
 Calculating MO derivatives via CPSCF
    1     0    12    0.0335594  
    2     0    12    0.0128101  
    3     0    12    0.0028173  
    4     0    12    0.0006380  
    5     0    12    0.0001385  
    6     2    10    0.0000175  
    7     9     3    0.0000027  
    8    12     0    0.0000006  Converged
 ------------------------------------------------------------------------------
                     AOints        : Timing summary (seconds)
 ------------------------------------------------------------------------------
     job step          cpu (% of tot)      sys (% of tot)     wall (% of tot)
 ------------------------------------------------------------------------------
  AOints            0.4780E+00 ( 3.7)   0.0000E+00 ( 0.0)   0.4776E+00 ( 3.7)
 ------------------------------------------------------------------------------
   Grand Totals     0.1277E+02          0.4000E-05          0.1276E+02
 ------------------------------------------------------------------------------
 Polarizability Matrix (a.u.)
            1           2           3
    1 -11.4350599   0.0000740  -0.0000000
    2   0.0000740 -11.8141373  -0.0000000
    3  -0.0000000  -0.0000000  -9.9985497
 Calculating analytic Hessian of the SCF energy
atom: 0 element: 29
atom: 1 element: 1
atom: 2 element: 1
 
 Direct stationary perturbation theory relativistic correction:
 
 rels  =       7.593426696693
 relv  =     -25.501592060744
 rel2e =       0.000000000000
 E_rel =     -17.908165364051
 
 **********************************************************************
 **                                                                  **
 **                       VIBRATIONAL ANALYSIS                       **
 **                       --------------------                       **
 **                                                                  **
 **        VIBRATIONAL FREQUENCIES (CM**-1) AND NORMAL MODES         **
 **     FORCE CONSTANTS (mDYN/ANGSTROM) AND REDUCED MASSES (AMU)     **
 **                  INFRARED INTENSITIES (KM/MOL)                   **
 **                                                                  **
 **********************************************************************
 

 Mode:                 1                      2                      3
 Frequency:       922.36                1200.35                3810.38
 Force Cnst:      0.5211                 0.8570                 8.6218
 Red. Mass:       1.0395                 1.0095                 1.0079
 IR Active:          YES                    YES                    YES
 IR Intens:       18.099                 32.970                 22.550
 Raman Active:       YES                    YES                    YES
               X      Y      Z        X      Y      Z        X      Y      Z
 Cu        -0.023  0.000  0.000   -0.000 -0.005  0.000    0.001 -0.000  0.000
 H          0.707  0.028  0.000   -0.688  0.162  0.000   -0.028  0.707 -0.000
 H          0.706 -0.029 -0.000    0.689  0.162 -0.000   -0.028 -0.707  0.000
 TransDip   0.136 -0.000  0.000    0.000  0.184 -0.000   -0.152  0.000 -0.000

 STANDARD THERMODYNAMIC QUANTITIES AT   298.15 K  AND     1.00 ATM

   This Molecule has  0 Imaginary Frequencies
   Zero point vibrational energy:        8.482 kcal/mol

   Atom    1 Element Cu Has Mass   62.92960
   Atom    2 Element H  Has Mass    1.00783
   Atom    3 Element H  Has Mass    1.00783
   Molecular Mass:    64.945260 amu
   Principal axes and moments of inertia in amu*Bohr^2:
                             1           2           3
    Eigenvalues --        1.14946    20.13278    21.28225
          X               1.00000    -0.00000     0.00000
          Y               0.00000     1.00000     0.00000
          Z              -0.00000    -0.00000     1.00000
   Rotational Symmetry Number is   1
   The Molecule is an Asymmetric Top
   Translational Enthalpy:        0.889 kcal/mol
   Rotational Enthalpy:           0.889 kcal/mol
   Vibrational Enthalpy:          8.523 kcal/mol
   gas constant (RT):             0.592 kcal/mol
   Translational Entropy:        38.431  cal/mol.K
   Rotational Entropy:           13.963  cal/mol.K
   Vibrational Entropy:           0.169  cal/mol.K

   Total Enthalpy:               10.893 kcal/mol
   Total Entropy:                52.563  cal/mol.K
 Total job time:  26.48s(wall), 26.50s(cpu) 
 Wed Feb  8 12:52:04 2023

        *************************************************************
        *                                                           *
        *  Thank you very much for using Q-Chem.  Have a nice day.  *
        *                                                           *
        *************************************************************


