
Running Job 1 of 1 input
qchem input_6731.0 /aimm/scratch/qchem6731/ 0
/home/epif/aimm/qcprog.exe_s input_6731.0 /aimm/scratch/qchem6731/
8388608
                  Welcome to Q-Chem
     A Quantum Leap Into The Future Of Chemistry


 Q-Chem 6.0, Q-Chem, Inc., Pleasanton, CA (2022)

 E. Epifanovsky,  A. T. B. Gilbert,  Xintian Feng,  Joonho Lee,  Yuezhi Mao,  
 N. Mardirossian,  P. Pokhilko,  A. White,  M. Wormit,  M. P. Coons,  
 A. L. Dempwolff,  Zhengting Gan,  D. Hait,  P. R. Horn,  L. D. Jacobson,  
 I. Kaliman,  J. Kussmann,  A. W. Lange,  Ka Un Lao,  D. S. Levine,  Jie Liu,  
 S. C. McKenzie,  A. F. Morrison,  K. Nanda,  F. Plasser,  D. R. Rehn,  
 M. L. Vidal,  Zhi-Qiang You,  Ying Zhu,  B. Alam,  B. Albrecht,  
 A. Aldossary,  E. Alguire,  J. H. Andersen,  V. Athavale,  D. Barton,  
 K. Begam,  A. Behn,  N. Bellonzi,  Y. A. Bernard,  E. J. Berquist,  
 H. Burton,  A. Carreras,  K. Carter-Fenk,  Romit Chakraborty,  
 Chandrima Chakravarty,  Junhan Chen,  A. D. Chien,  K. D. Closser,  
 V. Cofer-Shabica,  L. Cunha,  S. Dasgupta,  Jia Deng,  M. de Wergifosse,  
 M. Diedenhofen,  Hainam Do,  S. Ehlert,  Po-Tung Fang,  S. Fatehi,  
 Qingguo Feng,  T. Friedhoff,  B. Ganoe,  J. Gayvert,  Qinghui Ge,  
 G. Gidofalvi,  M. Goldey,  J. Gomes,  C. Gonzalez-Espinoza,  S. Gulania,  
 A. Gunina,  J. A. Gyamfi,  M. W. D. Hanson-Heine,  P. H. P. Harbach,  
 A. W. Hauser,  M. F. Herbst,  M. Hernandez Vera,  M. Hodecker,  
 Z. C. Holden,  S. Houck,  Xunkun Huang,  Kerwin Hui,  B. C. Huynh,  
 K. Ikeda,  M. Ivanov,  Hyunjun Ji,  Zuxin Jin,  Hanjie Jiang,  B. Kaduk,  
 S. Kaehler,  R. Kang,  K. Khistyaev,  Jaehoon Kim,  Yongbin Kim,  
 P. Klunzinger,  Z. Koczor-Benda,  Joong Hoon Koh,  D. Kosenkov,  
 Saikiran Kotaru,  L. Koulias,  T. Kowalczyk,  C. M. Krauter,  K. Kue,  
 A. Kunitsa,  T. Kus,  A. Landau,  K. V. Lawler,  D. Lefrancois,  S. Lehtola,  
 Rain Li,  Shaozhi Li,  Yi-Pei Li,  Jiashu Liang,  M. Liebenthal,  
 Hung-Hsuan Lin,  You-Sheng Lin,  Fenglai Liu,  Kuan-Yu Liu,  
 M. Loipersberger,  A. Luenser,  C. Malbon,  A. Manjanath,  P. Manohar,  
 E. Mansoor,  S. F. Manzer,  Shan-Ping Mao,  A. V. Marenich,  T. Markovich,  
 S. Mason,  F. Matz,  S. A. Maurer,  P. F. McLaughlin,  M. F. S. J. Menger,  
 J.-M. Mewes,  S. A. Mewes,  P. Morgante,  Mohammad Mostafanejad,  
 J. W. Mullinax,  K. J. Oosterbaan,  G. Paran,  V. Parravicini,  
 Alexander C. Paul,  Suranjan K. Paul,  F. Pavosevic,  Zheng Pei,  S. Prager,  
 E. I. Proynov,  E. Ramos,  B. Rana,  A. E. Rask,  A. Rettig,  R. M. Richard,  
 F. Rob,  E. Rossomme,  T. Scheele,  M. Scheurer,  M. Schneider,  
 P. E. Schneider,  N. Sergueev,  S. M. Sharada,  Hengyuan Shen,  
 W. Skomorowski,  D. W. Small,  C. J. Stein,  Yingli Su,  Yu-Chuan Su,  
 E. J. Sundstrom,  Zhen Tao,  J. Thirman,  Hung-Yi Tsai,  T. Tsuchimochi,  
 N. M. Tubman,  C. Utku,  S. P. Veccham,  O. Vydrov,  J. Wenzel,  
 Jonathan Wong,  J. Witte,  A. Yamada,  Chou-Hsun Yang,  Kun Yao,  
 S. Yeganeh,  S. R. Yost,  A. Zech,  F. Zeller,  Igor Ying Zhang,  
 Xing Zhang,  Yu Zhang,  D. Zuev,  A. Aspuru-Guzik,  A. T. Bell,  
 N. A. Besley,  K. B. Bravaya,  B. R. Brooks,  D. Casanova,  Jeng-Da Chai,  
 Hsing-Ta Chen,  S. Coriani,  C. J. Cramer,  A. E. DePrince, III,  
 R. A. DiStasio Jr.,  A. Dreuw,  B. D. Dunietz,  T. R. Furlani,  
 W. A. Goddard III,  S. Grimme,  S. Hammes-Schiffer,  T. Head-Gordon,  
 W. J. Hehre,  Chao-Ping Hsu,  T.-C. Jagau,  Yousung Jung,  A. Klamt,  
 Jing Kong,  D. S. Lambrecht,  Xiangyuan Li,  WanZhen Liang,  N. J. Mayhall,  
 C. W. McCurdy,  J. B. Neaton,  T. Neudecker,  C. Ochsenfeld,  
 J. A. Parkhill,  R. Peverati,  V. A. Rassolov,  Haisheng Ren,  Yihan Shao,  
 L. V. Slipchenko,  R. P. Steele,  J. E. Subotnik,  A. J. W. Thom,  
 A. Tkatchenko,  D. G. Truhlar,  T. Van Voorhis,  Fan Wang,  
 T. A. Wesolowski,  K. B. Whaley,  H. L. Woodcock III,  P. M. Zimmerman,  
 S. Faraji,  P. M. W. Gill,  M. Head-Gordon,  J. M. Herbert,  A. I. Krylov

 Contributors to earlier versions of Q-Chem not listed above: 
 R. D. Adamson,  B. Austin,  R. Baer,  J. Baker,  G. J. O. Beran,  
 K. Brandhorst,  S. T. Brown,  E. F. C. Byrd,  Arup K. Chakraborty,  
 G. K. L. Chan,  Chun-Min Chang,  Yunqing Chen,  C.-L. Cheng,  
 Siu Hung Chien,  D. M. Chipman,  D. L. Crittenden,  H. Dachsel,  
 R. J. Doerksen,  A. D. Dutoi,  R. G. Edgar,  J. Fosso-Tande,  
 L. Fusti-Molnar,  D. Ghosh,  A. Ghysels,  A. Golubeva-Zadorozhnaya,  
 J. Gonthier,  M. S. Gordon,  S. R. Gwaltney,  G. Hawkins,  J. E. Herr,  
 A. Heyden,  S. Hirata,  E. G. Hohenstein,  G. Kedziora,  F. J. Keil,  
 C. Kelley,  Jihan Kim,  R. A. King,  R. Z. Khaliullin,  P. P. Korambath,  
 W. Kurlancheek,  A. Laurent,  A. M. Lee,  M. S. Lee,  S. V. Levchenko,  
 Ching Yeh Lin,  D. Liotard,  E. Livshits,  R. C. Lochan,  I. Lotan,  
 L. A. Martinez-Martinez,  P. E. Maslen,  N. Nair,  D. P. O'Neill,  
 D. Neuhauser,  E. Neuscamman,  C. M. Oana,  R. Olivares-Amaya,  R. Olson,  
 T. M. Perrine,  B. Peters,  P. A. Pieniazek,  A. Prociuk,  Y. M. Rhee,  
 J. Ritchie,  M. A. Rohrdanz,  E. Rosta,  N. J. Russ,  H. F. Schaefer III,  
 M. W. Schmidt,  N. E. Schultz,  S. Sharma,  N. Shenvi,  C. D. Sherrill,  
 A. C. Simmonett,  A. Sodt,  T. Stein,  D. Stuck,  K. S. Thanthiriwatte,  
 V. Vanovschi,  L. Vogt,  Tao Wang,  A. Warshel,  M. A. Watson,  
 C. F. Williams,  Q. Wu,  X. Xu,  Jun Yang,  W. Zhang,  Yan Zhao

   Please cite Q-Chem as follows:
  "Software for the frontiers of quantum chemistry:
   An overview of developments in the Q-Chem 5 package"
   J. Chem. Phys. 155, 084801 (2021)
   https://doi.org/10.1063/5.0055522 (open access)

 Q-Chem 6.0.0 for Intel X86 EM64T Linux

 Parts of Q-Chem use Armadillo 9.900.5 (Nocturnal Misbehaviour).
 http://arma.sourceforge.net/

 Q-Chem begins on Wed Feb  8 10:58:36 2023  

 Host: iqmol
0

     Scratch files written to /aimm/scratch/qchem6731//
 Jul222 |scratch|qcdevops|jenkins|workspace|build_RNUM 6466   
 Processing $rem in /opt/qchem/qc600/config/preferences:
 Processing $rem in /home/epif/.qchemrc:

 Checking the input file for inconsistencies... 	...done.

--------------------------------------------------------------
User input:
--------------------------------------------------------------
$molecule
0 1
H   -1.6637381   -0.5703534   -2.2775110
C   -1.1452083   -0.5858988   -1.3275833
C    0.2521090   -0.6117757   -1.2944410
H    0.8146888   -0.6162116   -2.2190986
C    0.9237987   -0.6319841   -0.0677160
H    2.0063387   -0.6519873   -0.0534773
C    0.1984861   -0.6263485    1.1340086
C   -1.2043767   -0.6002154    1.0944984
H   -1.7777437   -0.5955325    2.0130399
C   -1.8728804   -0.5800996   -0.1339681
H   -2.9547307   -0.5600545   -0.1605913
N    0.8771238   -0.6469652    2.3772553
H    0.3513078   -0.6427932    3.2635656
H    1.9068361   -0.6667483    2.4140624
$end

$rem
BASIS  =  6-31G
GUI  =  2
METHOD  =  B3LYP
$end

--------------------------------------------------------------
 ----------------------------------------------------------------
             Standard Nuclear Orientation (Angstroms)
    I     Atom           X                Y                Z
 ----------------------------------------------------------------
    1      H       2.9607374506     0.0000020230     0.0001926263
    2      C       1.8783893392     0.0000002383     0.0000747168
    3      C       1.1795034106     1.2107116458    -0.0000232669
    4      H       1.7214481320     2.1476232237    -0.0000185230
    5      C      -0.2192197098     1.2125247487    -0.0000803936
    6      H      -0.7506269485     2.1559769545    -0.0001271664
    7      C      -0.9263540504     0.0000012784    -0.0000647516
    8      C      -0.2192188804    -1.2125282600    -0.0000797914
    9      H      -0.7506243032    -2.1559785289    -0.0000933566
   10      C       1.1795049900    -1.2107095640     0.0000223766
   11      H       1.7214517088    -2.1476217377     0.0000940999
   12      N      -2.3429120336    -0.0000009350     0.0000521373
   13      H      -2.8688176789    -0.8862678485    -0.0001200954
   14      H      -2.8688147214     0.8862719358     0.0006141153
 ----------------------------------------------------------------
 Molecular Point Group                 C1    NOp =  1
 Largest Abelian Subgroup              C1    NOp =  1
 Nuclear Repulsion Energy =         269.99590853 hartrees
 There are       25 alpha and       25 beta electrons
 Requested basis set is 6-31G
 There are 35 shells and 77 basis functions

 Total QAlloc Memory Limit   8000 MB
 Mega-Array Size       188 MB
 MEM_STATIC part       192 MB


                       Distance Matrix (Angstroms)
             H (  1)   C (  2)   C (  3)   H (  4)   C (  5)   H (  6)
   C (  2)  1.082348
   C (  3)  2.153744  1.397950
   H (  4)  2.479539  2.153350  1.082362
   C (  5)  3.403284  2.422845  1.398724  2.154205
   H (  6)  4.292139  3.399994  2.149170  2.472089  1.082818
   C (  7)  3.887092  2.804743  2.429085  3.409272  1.403657  2.163125
   C (  8)  3.403285  2.422847  2.797948  3.880310  2.425053  3.410165
   H (  9)  4.292139  3.399994  3.880721  4.963077  3.410162  4.311955
   C ( 10)  2.153744  1.397948  2.421421  3.401779  2.797945  3.880720
   H ( 11)  2.479540  2.153348  3.401781  4.295245  3.880308  4.963077
   N ( 12)  5.303649  4.221301  3.724679  4.596881  2.445463  2.680226
   H ( 13)  5.896540  4.829228  4.559191  5.502275  3.380133  3.707018
   H ( 14)  5.896537  4.829226  4.061298  4.760412  2.669606  2.469589
             C (  7)   C (  8)   H (  9)   C ( 10)   H ( 11)   N ( 12)
   C (  8)  1.403662
   H (  9)  2.163130  1.082816
   C ( 10)  2.429087  1.398725  2.149170
   H ( 11)  3.409276  2.154206  2.472090  1.082363
   N ( 12)  1.416558  2.445464  2.680228  3.724679  4.596882
   H ( 13)  2.135097  2.669610  2.469597  4.061303  4.760419  1.030556
   H ( 14)  2.135095  3.380136  3.707023  4.559191  5.502277  1.030560
             H ( 13)
   H ( 14)  1.772540
 
 A cutoff of  1.0D-09 yielded    564 shell pairs
 There are      2967 function pairs
 Smallest overlap matrix eigenvalue = 6.35E-04

 Scale SEOQF with 1.000000e-01/1.000000e-01/1.000000e+00

 Standard Electronic Orientation quadrupole field applied
 Nucleus-field energy     =     0.0000000080 hartrees
 Guess from superposition of atomic densities
 Warning:  Energy on first SCF cycle will be non-variational
 SAD guess density has 50.000000 electrons

 -----------------------------------------------------------------------
  General SCF calculation program by
  Eric Jon Sundstrom, Paul Horn, Yuezhi Mao, Dmitri Zuev, Alec White,
  David Stuck, Shaama M.S., Shane Yost, Joonho Lee, David Small,
  Daniel Levine, Susi Lehtola, Hugh Burton, Evgeny Epifanovsky,
  Bang C. Huynh
 -----------------------------------------------------------------------
 Exchange:     0.2000 Hartree-Fock + 0.0800 Slater + 0.7200 B88
 Correlation:  0.1900 VWN1RPA + 0.8100 LYP
 Using SG-1 standard quadrature grid
 A restricted SCF calculation will be
 performed using DIIS
 SCF converges when DIIS error is below 1.0e-05
 ---------------------------------------
  Cycle       Energy         DIIS error
 ---------------------------------------
    1    -289.0847967968      1.13e-01  
    2    -287.4207282044      1.18e-02  
    3    -287.4193747582      1.21e-02  
    4    -287.5342477675      1.29e-03  
    5    -287.5352825634      5.92e-04  
    6    -287.5355716856      1.83e-04  
    7    -287.5355990458      3.63e-05  
    8    -287.5355999072      1.29e-05  
    9    -287.5356000400      1.48e-06  Convergence criterion met
 ---------------------------------------
 SCF time:   CPU 3.44s  wall 3.00s 
 SCF   energy in the final basis set =     -287.5356000400
 Total energy in the final basis set =     -287.5356000400
 
 --------------------------------------------------------------
 
                    Orbital Energies (a.u.)
 --------------------------------------------------------------
 
 Alpha MOs
 -- Occupied --
-14.3316 -10.2248 -10.1767 -10.1767 -10.1720 -10.1720 -10.1653  -0.9010
 -0.8275  -0.7376  -0.7191  -0.6065  -0.5917  -0.5203  -0.5058  -0.4704
 -0.4275  -0.4253  -0.4136  -0.3720  -0.3480  -0.3373  -0.2959  -0.2403
 -0.1905
 -- Virtual --
  0.0117   0.0312   0.0751   0.1058   0.1214   0.1639   0.1660   0.1769
  0.1963   0.1984   0.2629   0.3173   0.3305   0.3544   0.3549   0.5025
  0.5341   0.5463   0.5782   0.5995   0.6139   0.6188   0.6274   0.6441
  0.6443   0.6709   0.6746   0.6765   0.6838   0.7103   0.7621   0.7795
  0.8549   0.8596   0.8809   0.8902   0.9071   0.9243   0.9622   0.9928
  1.0422   1.0549   1.1144   1.1496   1.1687   1.2215   1.2275   1.3980
  1.4604   1.6006   1.6471   1.9401
 --------------------------------------------------------------
 
          Ground-State Mulliken Net Atomic Charges

     Atom                 Charge (a.u.)
  ----------------------------------------
      1 H                     0.111767
      2 C                    -0.130633
      3 C                    -0.131952
      4 H                     0.119268
      5 C                    -0.151337
      6 H                     0.109606
      7 C                     0.328328
      8 C                    -0.151335
      9 H                     0.109606
     10 C                    -0.131953
     11 H                     0.119267
     12 N                    -0.823910
     13 H                     0.311640
     14 H                     0.311640
  ----------------------------------------
  Sum of atomic charges =     0.000000

 -----------------------------------------------------------------
                    Cartesian Multipole Moments
 -----------------------------------------------------------------
    Charge (ESU x 10^10)
                 0.0000
    Dipole Moment (Debye)
         X      -1.7097      Y       0.0000      Z       0.0008
       Tot       1.7097
    Quadrupole Moments (Debye-Ang)
        XX     -32.6750     XY       0.0000     YY     -36.1385
        XZ      -0.0019     YZ       0.0013     ZZ     -46.1097
    Octopole Moments (Debye-Ang^2)
       XXX     -25.8009    XXY      -0.0000    XYY      -6.4798
       YYY       0.0000    XXZ       0.0084    XYZ      -0.0042
       YYZ       0.0007    XZZ      -1.6291    YZZ       0.0000
       ZZZ       0.0008
    Hexadecapole Moments (Debye-Ang^3)
      XXXX    -465.5822   XXXY       0.0002   XXYY    -118.5246
      XYYY       0.0001   YYYY    -282.8093   XXXZ      -0.0199
      XXYZ       0.0109   XYYZ      -0.0016   YYYZ       0.0007
      XXZZ    -115.9236   XYZZ       0.0000   YYZZ     -64.3810
      XZZZ      -0.0017   YZZZ       0.0009   ZZZZ     -47.0890
 -----------------------------------------------------------------
 Total job time:  3.56s(wall), 3.56s(cpu) 
 Wed Feb  8 10:58:39 2023

        *************************************************************
        *                                                           *
        *  Thank you very much for using Q-Chem.  Have a nice day.  *
        *                                                           *
        *************************************************************


