Jobname.Temp
SP        R                             6-31G               
Number of atoms                            I               14
Charge                                     I                0
Multiplicity                               I                1
Number of electrons                        I               50
Number of alpha electrons                  I               25
Number of beta electrons                   I               25
Atomic numbers                             I   N=          14
           1           6           6           1           6           1
           6           6           1           6           1           7
           1           1
Current cartesian coordinates              R   N=          42
  5.59498291E+00  3.82286537E-06  3.64010870E-04  3.54964141E+00  4.50334933E-07
  1.41194273E-04  2.22893841E+00  2.28791343E+00 -4.39680098E-05  3.25306551E+00
  4.05841971E+00 -3.50033740E-05 -4.14265213E-01  2.29133969E+00 -1.51921894E-04
 -1.41847935E+00  4.07420598E+00 -2.40309634E-04 -1.75055545E+00  2.41588484E-06
 -1.22362795E-04 -4.14263645E-01 -2.29134633E+00 -1.50783907E-04 -1.41847436E+00
 -4.07420895E+00 -1.76418473E-04  2.22894139E+00 -2.28790949E+00  4.22855651E-05
  3.25307227E+00 -4.05841690E+00  1.77822979E-04 -4.42746208E+00 -1.76697844E-06
  9.85251444E-05 -5.42127972E+00 -1.67480351E+00 -2.26947429E-04 -5.42127413E+00
  1.67481123E+00  1.16050966E-03
Nuclear charges                            R   N=          14
  1.00000000E+00  6.00000000E+00  6.00000000E+00  1.00000000E+00  6.00000000E+00
  1.00000000E+00  6.00000000E+00  6.00000000E+00  1.00000000E+00  6.00000000E+00
  1.00000000E+00  7.00000000E+00  1.00000000E+00  1.00000000E+00
Number of basis functions                  I               77
Number of contracted shells                I               35
Number of primitive shells                 I               98
Highest angular momentum                   I                1
Largest degree of contraction              I                6
Shell types                                I   N=          35
           0           0           0          -1          -1           0
          -1          -1           0           0           0          -1
          -1           0           0           0          -1          -1
           0          -1          -1           0           0           0
          -1          -1           0           0           0          -1
          -1           0           0           0           0
Number of primitives per shell             I   N=          35
           3           1           6           3           1           6
           3           1           3           1           6           3
           1           3           1           6           3           1
           6           3           1           3           1           6
           3           1           3           1           6           3
           1           3           1           3           1
Shell to atom map                          I   N=          35
           1           1           2           2           2           3
           3           3           4           4           5           5
           5           6           6           7           7           7
           8           8           8           9           9          10
          10          10          11          11          12          12
          12          13          13          14          14
Primitive exponents                        R   N=          98
  1.87311370E+01  2.82539370E+00  6.40121700E-01  1.61277800E-01  3.04752490E+03
  4.57369510E+02  1.03948690E+02  2.92101550E+01  9.28666300E+00  3.16392700E+00
  7.86827240E+00  1.88128850E+00  5.44249300E-01  1.68714400E-01  3.04752490E+03
  4.57369510E+02  1.03948690E+02  2.92101550E+01  9.28666300E+00  3.16392700E+00
  7.86827240E+00  1.88128850E+00  5.44249300E-01  1.68714400E-01  1.87311370E+01
  2.82539370E+00  6.40121700E-01  1.61277800E-01  3.04752490E+03  4.57369510E+02
  1.03948690E+02  2.92101550E+01  9.28666300E+00  3.16392700E+00  7.86827240E+00
  1.88128850E+00  5.44249300E-01  1.68714400E-01  1.87311370E+01  2.82539370E+00
  6.40121700E-01  1.61277800E-01  3.04752490E+03  4.57369510E+02  1.03948690E+02
  2.92101550E+01  9.28666300E+00  3.16392700E+00  7.86827240E+00  1.88128850E+00
  5.44249300E-01  1.68714400E-01  3.04752490E+03  4.57369510E+02  1.03948690E+02
  2.92101550E+01  9.28666300E+00  3.16392700E+00  7.86827240E+00  1.88128850E+00
  5.44249300E-01  1.68714400E-01  1.87311370E+01  2.82539370E+00  6.40121700E-01
  1.61277800E-01  3.04752490E+03  4.57369510E+02  1.03948690E+02  2.92101550E+01
  9.28666300E+00  3.16392700E+00  7.86827240E+00  1.88128850E+00  5.44249300E-01
  1.68714400E-01  1.87311370E+01  2.82539370E+00  6.40121700E-01  1.61277800E-01
  4.17351100E+03  6.27457900E+02  1.42902100E+02  4.02343300E+01  1.28202100E+01
  4.39043700E+00  1.16263580E+01  2.71628000E+00  7.72218000E-01  2.12031300E-01
  1.87311370E+01  2.82539370E+00  6.40121700E-01  1.61277800E-01  1.87311370E+01
  2.82539370E+00  6.40121700E-01  1.61277800E-01
Contraction coefficients                   R   N=          98
  3.34945995E-02  2.34726947E-01  8.13757318E-01  1.00000000E+00  1.83470016E-03
  1.40373012E-02  6.88426061E-02  2.32184421E-01  4.67941342E-01  3.62312032E-01
 -1.19332409E-01 -1.60854212E-01  1.14345648E+00  1.00000000E+00  1.83470016E-03
  1.40373012E-02  6.88426061E-02  2.32184421E-01  4.67941342E-01  3.62312032E-01
 -1.19332409E-01 -1.60854212E-01  1.14345648E+00  1.00000000E+00  3.34945995E-02
  2.34726947E-01  8.13757318E-01  1.00000000E+00  1.83470016E-03  1.40373012E-02
  6.88426061E-02  2.32184421E-01  4.67941342E-01  3.62312032E-01 -1.19332409E-01
 -1.60854212E-01  1.14345648E+00  1.00000000E+00  3.34945995E-02  2.34726947E-01
  8.13757318E-01  1.00000000E+00  1.83470016E-03  1.40373012E-02  6.88426061E-02
  2.32184421E-01  4.67941342E-01  3.62312032E-01 -1.19332409E-01 -1.60854212E-01
  1.14345648E+00  1.00000000E+00  1.83470016E-03  1.40373012E-02  6.88426061E-02
  2.32184421E-01  4.67941342E-01  3.62312032E-01 -1.19332409E-01 -1.60854212E-01
  1.14345648E+00  1.00000000E+00  3.34945995E-02  2.34726947E-01  8.13757318E-01
  1.00000000E+00  1.83470016E-03  1.40373012E-02  6.88426061E-02  2.32184421E-01
  4.67941342E-01  3.62312032E-01 -1.19332409E-01 -1.60854212E-01  1.14345648E+00
  1.00000000E+00  3.34945995E-02  2.34726947E-01  8.13757318E-01  1.00000000E+00
  1.83479944E-03  1.39949958E-02  6.85869792E-02  2.32240930E-01  4.69069858E-01
  3.60454891E-01 -1.14961023E-01 -1.69118034E-01  1.14585223E+00  1.00000000E+00
  3.34945995E-02  2.34726947E-01  8.13757318E-01  1.00000000E+00  3.34945995E-02
  2.34726947E-01  8.13757318E-01  1.00000000E+00
P(S=P) Contraction coefficients            R   N=          98
  0.00000000E+00  0.00000000E+00  0.00000000E+00  0.00000000E+00  0.00000000E+00
  0.00000000E+00  0.00000000E+00  0.00000000E+00  0.00000000E+00  0.00000000E+00
  6.89990956E-02  3.16423980E-01  7.44308252E-01  1.00000000E+00  0.00000000E+00
  0.00000000E+00  0.00000000E+00  0.00000000E+00  0.00000000E+00  0.00000000E+00
  6.89990956E-02  3.16423980E-01  7.44308252E-01  1.00000000E+00  0.00000000E+00
  0.00000000E+00  0.00000000E+00  0.00000000E+00  0.00000000E+00  0.00000000E+00
  0.00000000E+00  0.00000000E+00  0.00000000E+00  0.00000000E+00  6.89990956E-02
  3.16423980E-01  7.44308252E-01  1.00000000E+00  0.00000000E+00  0.00000000E+00
  0.00000000E+00  0.00000000E+00  0.00000000E+00  0.00000000E+00  0.00000000E+00
  0.00000000E+00  0.00000000E+00  0.00000000E+00  6.89990956E-02  3.16423980E-01
  7.44308252E-01  1.00000000E+00  0.00000000E+00  0.00000000E+00  0.00000000E+00
  0.00000000E+00  0.00000000E+00  0.00000000E+00  6.89990956E-02  3.16423980E-01
  7.44308252E-01  1.00000000E+00  0.00000000E+00  0.00000000E+00  0.00000000E+00
  0.00000000E+00  0.00000000E+00  0.00000000E+00  0.00000000E+00  0.00000000E+00
  0.00000000E+00  0.00000000E+00  6.89990956E-02  3.16423980E-01  7.44308252E-01
  1.00000000E+00  0.00000000E+00  0.00000000E+00  0.00000000E+00  0.00000000E+00
  0.00000000E+00  0.00000000E+00  0.00000000E+00  0.00000000E+00  0.00000000E+00
  0.00000000E+00  6.75800232E-02  3.23907111E-01  7.40895255E-01  1.00000000E+00
  0.00000000E+00  0.00000000E+00  0.00000000E+00  0.00000000E+00  0.00000000E+00
  0.00000000E+00  0.00000000E+00  0.00000000E+00
Coordinates of each shell                  R   N=         105
  5.59498291E+00  3.82286537E-06  3.64010870E-04  5.59498291E+00  3.82286537E-06
  3.64010870E-04  3.54964141E+00  4.50334933E-07  1.41194273E-04  3.54964141E+00
  4.50334933E-07  1.41194273E-04  3.54964141E+00  4.50334933E-07  1.41194273E-04
  2.22893841E+00  2.28791343E+00 -4.39680098E-05  2.22893841E+00  2.28791343E+00
 -4.39680098E-05  2.22893841E+00  2.28791343E+00 -4.39680098E-05  3.25306551E+00
  4.05841971E+00 -3.50033740E-05  3.25306551E+00  4.05841971E+00 -3.50033740E-05
 -4.14265213E-01  2.29133969E+00 -1.51921894E-04 -4.14265213E-01  2.29133969E+00
 -1.51921894E-04 -4.14265213E-01  2.29133969E+00 -1.51921894E-04 -1.41847935E+00
  4.07420598E+00 -2.40309634E-04 -1.41847935E+00  4.07420598E+00 -2.40309634E-04
 -1.75055545E+00  2.41588484E-06 -1.22362795E-04 -1.75055545E+00  2.41588484E-06
 -1.22362795E-04 -1.75055545E+00  2.41588484E-06 -1.22362795E-04 -4.14263645E-01
 -2.29134633E+00 -1.50783907E-04 -4.14263645E-01 -2.29134633E+00 -1.50783907E-04
 -4.14263645E-01 -2.29134633E+00 -1.50783907E-04 -1.41847436E+00 -4.07420895E+00
 -1.76418473E-04 -1.41847436E+00 -4.07420895E+00 -1.76418473E-04  2.22894139E+00
 -2.28790949E+00  4.22855651E-05  2.22894139E+00 -2.28790949E+00  4.22855651E-05
  2.22894139E+00 -2.28790949E+00  4.22855651E-05  3.25307227E+00 -4.05841690E+00
  1.77822979E-04  3.25307227E+00 -4.05841690E+00  1.77822979E-04 -4.42746208E+00
 -1.76697844E-06  9.85251444E-05 -4.42746208E+00 -1.76697844E-06  9.85251444E-05
 -4.42746208E+00 -1.76697844E-06  9.85251444E-05 -5.42127972E+00 -1.67480351E+00
 -2.26947429E-04 -5.42127972E+00 -1.67480351E+00 -2.26947429E-04 -5.42127413E+00
  1.67481123E+00  1.16050966E-03 -5.42127413E+00  1.67481123E+00  1.16050966E-03
Overlap Matrix                             R   N=        3003
  1.00000000E+00  6.58292049E-01  1.00000000E+00  3.38568513E-02  9.30587090E-02
  1.00000000E+00  2.78532645E-01  4.79602180E-01  2.19058872E-01  1.00000000E+00
  3.74205961E-01  2.65890667E-01 -1.15900627E-16  1.86897758E-16  1.00000000E+00
  6.17022140E-07  4.38422810E-07  5.41507054E-24  2.22799490E-23  6.22932401E-38
  1.00000000E+00  4.07654657E-05  2.89657516E-05  3.08592923E-21 -1.66215836E-21
  5.33512509E-36  6.35996472E-43  1.00000000E+00  3.80100263E-01  7.07986774E-01
  1.84261053E-01  8.12273068E-01 -2.63913784E-17  1.55790976E-23  0.00000000E+00
  1.00000000E+00  5.15559524E-01  5.81390543E-01 -3.83768098E-17  6.68364638E-18
  5.69754058E-01  1.14775308E-39  0.00000000E+00 -3.64818029E-16  1.00000000E+00
  8.50097739E-07  9.58645439E-07 -2.76785436E-24 -2.05385706E-24  1.14775308E-39
  5.69754058E-01  0.00000000E+00 -4.34896981E-23  1.58658259E-38  1.00000000E+00
  5.61643221E-05  6.33358598E-05 -1.41949327E-21  0.00000000E+00  0.00000000E+00
  0.00000000E+00  5.69754058E-01  0.00000000E+00  0.00000000E+00  0.00000000E+00
  1.00000000E+00  3.56813458E-05  1.35354360E-02  2.12558900E-06  1.52049063E-02
 -1.72379283E-02  2.98620356E-02 -2.41675393E-06  5.92023102E-02 -6.19270117E-02
  1.07278937E-01 -8.68215402E-06  1.00000000E+00  7.13512537E-03  1.05341490E-01
  1.52049063E-02  1.78340894E-01 -1.27312425E-01  2.20549018E-01 -1.78491752E-05
  3.36747603E-01 -2.73819576E-01  4.74349920E-01 -3.83894470E-05  2.19058872E-01
  1.00000000E+00  1.28066069E-02  9.09097784E-02  1.72379283E-02  1.27312425E-01
 -3.94712842E-03  1.78887543E-01 -1.44774850E-05  1.23061831E-01  1.22623604E-01
  1.80559087E-01 -1.46127642E-05  7.99038724E-17  3.89496447E-18  1.00000000E+00
 -8.70468558E-03 -6.17916237E-02 -2.98620356E-02 -2.20549018E-01  1.78887543E-01
 -2.10578791E-01  2.50799960E-05 -2.13185524E-01  1.80559087E-01 -8.59388469E-02
  2.53143461E-05 -1.07118764E-16  3.89496447E-18  1.50784328E-31  1.00000000E+00
  1.55221512E-06  1.10186510E-05  2.41675393E-06  1.78491752E-05 -1.44774850E-05
  2.50799960E-05  9.93161130E-02  1.72532429E-05 -1.46127642E-05  2.53143461E-05
  2.26851748E-01  2.11876647E-21  8.13681317E-21 -2.30078625E-36 -2.30078625E-36
  1.00000000E+00  7.07075140E-02  2.55061771E-01  5.92023102E-02  3.36747603E-01
 -1.23061831E-01  2.13185524E-01 -1.72532429E-05  5.55041599E-01 -3.01097239E-01
  5.21604237E-01 -4.22137696E-05  1.84261053E-01  8.12273068E-01  0.00000000E+00
  3.82215574E-16  2.79952544E-21  1.00000000E+00  1.57045945E-01  3.44700737E-01
  6.19270117E-02  2.73819576E-01  1.22623604E-01  1.80559087E-01 -1.46127642E-05
  3.01097239E-01  3.91703306E-01  2.82958243E-01 -2.28999943E-05  0.00000000E+00
  0.00000000E+00  5.69754058E-01  0.00000000E+00  0.00000000E+00  0.00000000E+00
  1.00000000E+00 -1.06744556E-01 -2.34294029E-01 -1.07278937E-01 -4.74349920E-01
  1.80559087E-01 -8.59388469E-02  2.53143461E-05 -5.21604237E-01  2.82958243E-01
  6.48603563E-02  3.96706862E-05 -2.32184452E-17  3.26928154E-16  0.00000000E+00
  5.69754058E-01  0.00000000E+00  0.00000000E+00  0.00000000E+00  1.00000000E+00
  1.90346351E-05  4.17791924E-05  8.68215402E-06  3.83894470E-05 -1.46127642E-05
  2.53143461E-05  2.26851748E-01  4.22137696E-05 -2.28999943E-05  3.96706862E-05
  5.55041595E-01 -6.52736941E-22 -4.66862404E-22  0.00000000E+00  0.00000000E+00
  5.69754058E-01  0.00000000E+00  0.00000000E+00  0.00000000E+00  1.00000000E+00
  5.90515215E-04  3.71225756E-02  3.57998826E-05  7.14790107E-03 -1.13041921E-03
  1.54689410E-02 -6.71589312E-07  7.07656226E-02 -1.38484263E-02  1.89505351E-01
 -8.22743900E-06  3.38548050E-02  2.78523843E-01  1.87362636E-01  3.23911676E-01
  1.64006773E-06  3.80094729E-01  2.58143085E-01  4.46276595E-01  2.25964019E-06
  1.00000000E+00  3.71225756E-02  1.70255914E-01  1.35482145E-02  1.05419905E-01
 -8.01603974E-03  1.09693506E-01 -4.76238070E-06  2.55189293E-01 -3.03861231E-02
  4.15811357E-01 -1.80525909E-05  9.30571595E-02  4.79595922E-01  1.33132845E-01
  2.30159458E-01  1.16537046E-06  7.07980533E-01  2.91106673E-01  5.03263898E-01
  2.54818501E-06  6.58292049E-01  1.00000000E+00  5.45949240E-11  2.85814603E-04
  5.19913367E-16  1.86156610E-05 -6.19458845E-05  3.58078658E-05 -4.58066799E-09
  6.09323157E-03 -1.91152137E-02  1.10495638E-02 -1.41349903E-06  2.09962141E-06
  1.51481857E-02 -3.43692507E-02  4.45513397E-05 -1.40371104E-06  5.91278708E-02
 -1.23782424E-01  1.60453682E-04 -5.05552932E-06  3.55430036E-05  1.35204839E-02
  1.00000000E+00  4.81713723E-06  4.96298227E-03  1.86156610E-05  4.31279344E-03
 -8.32437901E-03  4.81191364E-03 -6.15556898E-07  5.71105922E-02 -1.40277252E-01
  8.10873726E-02 -1.03729816E-05  1.51481857E-02  1.77987690E-01 -2.54257755E-01
  3.29583084E-04 -1.03844108E-05  3.36418411E-01 -5.47478581E-01  7.09672273E-04
 -2.23601536E-05  7.12019023E-03  1.05249717E-01  2.19058872E-01  1.00000000E+00
  1.50311322E-05  7.12221509E-03  6.19458845E-05  8.32437901E-03 -1.44685139E-02
  9.45531865E-03 -1.20955758E-06  5.89159082E-02 -1.12632959E-01  8.60245520E-02
 -1.10045629E-05  3.43692507E-02  2.54257755E-01 -3.13534665E-01  5.34863774E-04
 -1.68523368E-05  2.46040389E-01 -1.90432704E-01  5.40607972E-04 -1.70333234E-05
  1.39232187E-02  9.89579010E-02  4.85176769E-18  8.34268214E-17  1.00000000E+00
 -5.73139463E-06 -2.71571195E-03 -3.58078658E-05 -4.81191364E-03  9.45531865E-03
 -3.57692181E-03  6.99185682E-07 -3.40563857E-02  8.60245520E-02 -1.35411822E-02
  6.36119599E-06 -4.45513397E-05 -3.29583084E-04  5.34863774E-04  9.90867362E-02
  2.18449389E-08 -3.18931275E-04  5.40607972E-04  2.26620068E-01  2.20795438E-08
  6.70881450E-03  4.76822362E-02 -3.15864477E-16  2.80030958E-16 -7.23250853E-33
  1.00000000E+00  1.29051978E-09  6.11488167E-07  4.58066799E-09  6.15556898E-07
 -1.20955758E-06  6.99185682E-07  1.88873226E-03  4.35661251E-06 -1.10045629E-05
  6.36119599E-06  3.61853749E-02  1.40371104E-06  1.03844108E-05 -1.68523368E-05
  2.18449389E-08  9.90874288E-02  1.00487966E-05 -1.70333234E-05  2.20795438E-08
  2.26620768E-01  4.43887459E-07  3.15488626E-06  1.51142408E-20 -1.43215425E-20
  1.13366486E-36 -1.74896950E-35  1.00000000E+00  2.48572470E-03  3.30123585E-02
  6.09323157E-03  5.71105922E-02 -5.89159082E-02  3.40563857E-02 -4.35661251E-06
  1.70612158E-01 -2.77785433E-01  1.60574081E-01 -2.05412006E-05  5.91278708E-02
  3.36418411E-01 -2.46040389E-01  3.18931275E-04 -1.00487966E-05  5.54679555E-01
 -6.02211237E-01  7.80619795E-04 -2.45955481E-05  7.06395121E-02  2.54912485E-01
  1.84261053E-01  8.12273068E-01 -4.77769468E-17  0.00000000E+00 -9.58729986E-21
  1.00000000E+00  9.79035332E-03  7.96477802E-02  1.91152137E-02  1.40277252E-01
 -1.12632959E-01  8.60245520E-02 -1.10045629E-05  2.77785433E-01 -2.81669482E-01
  2.61441747E-01 -3.34445468E-05  1.23782424E-01  5.47478581E-01 -1.90432704E-01
  5.40607972E-04 -1.70333234E-05  6.02211237E-01 -9.91364563E-02  8.47512781E-04
 -2.67031934E-05  1.70937750E-01  3.75334228E-01  6.43629584E-18 -4.08660193E-17
  5.69754058E-01  0.00000000E+00  0.00000000E+00  4.56022536E-17  1.00000000E+00
 -3.73307730E-03 -3.03698253E-02 -1.10495638E-02 -8.10873726E-02  8.60245520E-02
 -1.35411822E-02  6.36119599E-06 -1.60574081E-01  2.61441747E-01  1.94855569E-02
  1.93326458E-05 -1.60453682E-04 -7.09672273E-04  5.40607972E-04  2.26620068E-01
  2.20795438E-08 -7.80619795E-04  8.47512781E-04  5.54678456E-01  3.46141688E-08
  8.23652694E-02  1.80852414E-01 -2.32569778E-17  0.00000000E+00  0.00000000E+00
  5.69754058E-01  0.00000000E+00  0.00000000E+00  0.00000000E+00  1.00000000E+00
  8.40565066E-07  6.83827636E-06  1.41349903E-06  1.03729816E-05 -1.10045629E-05
  6.36119599E-06  3.61853749E-02  2.05412006E-05 -3.34445468E-05  1.93326458E-05
  1.70612156E-01  5.05552932E-06  2.23601536E-05 -1.70333234E-05  2.20795438E-08
  2.26620768E-01  2.45955481E-05 -2.67031934E-05  3.46141688E-08  5.54679554E-01
  5.44968268E-06  1.19660662E-05  1.41949327E-21  1.45951222E-21  0.00000000E+00
  0.00000000E+00  5.69754058E-01  0.00000000E+00  0.00000000E+00  0.00000000E+00
  1.00000000E+00  4.74728920E-10  1.25105724E-04  5.69818756E-11  4.93171701E-06
 -1.27225712E-05  1.04333957E-05 -9.76971145E-10  2.51260655E-03 -8.18179892E-03
  6.70964575E-03 -6.28283490E-07  3.70803172E-05  7.28467686E-03 -1.41727595E-02
  6.94099123E-03 -7.62924020E-07  7.13842411E-02 -1.71806642E-01  8.41408758E-02
 -9.24840460E-06  6.16023969E-04  3.77662463E-02  3.37873222E-02  2.78233404E-01
 -1.83499920E-01  3.25782925E-01 -1.61510804E-05  3.79912066E-01 -2.53001740E-01
  4.49175383E-01 -2.22684100E-05  1.00000000E+00  1.25105724E-04  4.96643039E-03
  2.89387919E-04  5.01223141E-03 -5.94767871E-03  4.87751136E-03 -4.56724539E-07
  3.32305937E-02 -6.62837746E-02  5.43573181E-02 -5.08995658E-06  1.36843477E-02
  1.06254302E-01 -9.93894993E-02  4.86751816E-02 -5.35016743E-06  2.56544333E-01
 -3.75685923E-01  1.83989060E-01 -2.02232892E-05  3.77662463E-02  1.72074193E-01
  9.30060171E-02  4.79389379E-01 -1.30485605E-01  2.31662128E-01 -1.14849287E-05
  7.07774526E-01 -2.85363385E-01  5.06629747E-01 -2.51167792E-05  6.58292049E-01
  1.00000000E+00  6.50560487E-14  4.03443913E-05  6.57406303E-21  6.33665200E-07
 -2.80145289E-06  1.03890395E-12 -1.39304771E-10  1.91289814E-03 -8.02097393E-03
  2.97453567E-09 -3.98850162E-07  4.38178008E-16  1.76824617E-05 -5.90654941E-05
 -3.39582366E-05 -1.16357178E-09  5.98709045E-03 -1.88559841E-02 -1.08407791E-02
 -3.71456996E-07  5.04975494E-11  2.79412896E-04  1.94123248E-06  1.47911713E-02
 -1.69618512E-02 -2.90844914E-02  3.75200694E-07  5.86550296E-02 -6.20784703E-02
 -1.06445972E-01  1.37319240E-06  3.29671247E-05  1.32341205E-02  1.00000000E+00
  1.18480644E-07  1.04491970E-03  6.33665200E-07  6.23783739E-04 -1.59520521E-03
  5.91573395E-10 -7.93230174E-08  2.30261095E-02 -7.57981271E-02  2.81093337E-08
 -3.76913022E-06  1.76824617E-05  4.18843624E-03 -8.11430874E-03 -4.66511998E-03
 -1.59849347E-07  5.63301739E-02 -1.38909846E-01 -7.98627607E-02 -2.73648056E-06
  4.61504188E-06  4.87443092E-03  1.47911713E-02  1.75749403E-01 -1.26811948E-01
 -2.17444486E-01  2.80511427E-06  3.34325176E-01 -2.75067324E-01 -4.71658025E-01
  6.08456292E-06  6.83701510E-03  1.03487844E-01  2.19058872E-01  1.00000000E+00
  4.51776890E-07  1.79231849E-03  2.80145289E-06  1.59520521E-03 -3.83746072E-03
  1.52222808E-09 -2.04112838E-07  3.10260127E-02 -9.02702160E-02  3.87612917E-08
 -5.19743220E-06  5.90654941E-05  8.11430874E-03 -1.41657344E-02 -9.19824198E-03
 -3.15175811E-07  5.83165866E-02 -1.12200531E-01 -8.50185014E-02 -2.91314092E-06
  1.19905446E-05  5.82276969E-03  1.69618512E-02  1.26811948E-01 -6.21538498E-03
 -1.78082452E-01  2.29732948E-06  1.23581436E-01  1.19251907E-01 -1.81587418E-01
  2.34254483E-06  1.20982340E-03  8.80598146E-03  1.82301151E-16  1.59561813E-16
  1.00000000E+00  8.65343362E-14  3.43304614E-10 -1.03890395E-12 -5.91573395E-10
  1.52222808E-09  2.67298185E-04  7.56941641E-14 -1.15058324E-08  3.87612917E-08
  1.42514118E-02  1.92744018E-12  3.39582366E-05  4.66511998E-03 -9.19824198E-03
 -3.45500895E-03 -1.81202493E-07  3.35276709E-02 -8.50185014E-02 -1.32022848E-02
 -1.67483791E-06  9.72548359E-06  4.72282561E-03  2.90844914E-02  2.17444486E-01
 -1.78082452E-01 -2.07717107E-01  3.93923156E-06  2.11905127E-01 -1.81587418E-01
 -8.62157114E-02  4.01676233E-06  1.48431846E-02  1.08039577E-01 -3.17366592E-22
 -5.57799861E-22 -1.55096598E-37  1.00000000E+00  2.99137206E-11  1.18675647E-07
  1.39304771E-10  7.93230174E-08 -2.04112838E-07  7.56941641E-14  2.67298175E-04
  1.54279646E-06 -5.19743220E-06  1.92744018E-12  1.42514116E-02  1.16357178E-09
  1.59849347E-07 -3.15175811E-07 -1.81202493E-07  1.83329147E-03  1.14881853E-06
 -2.91314092E-06 -1.67483791E-06  3.56769878E-02  2.09345801E-10  1.01661136E-07
 -3.75200694E-07 -2.80511427E-06  2.29732948E-06  3.93923156E-06  9.76409282E-02
 -2.73365448E-06  2.34254483E-06  4.01676233E-06  2.25152289E-01 -4.29705261E-07
 -3.12770985E-06  4.51408726E-21 -1.39397948E-20  1.05105966E-35 -3.36789923E-42
  1.00000000E+00  4.57045943E-04  1.16848496E-02  1.91289814E-03  2.30261095E-02
 -3.10260127E-02  1.15058324E-08 -1.54279646E-06  9.35022495E-02 -2.03558919E-01
  7.54887461E-08 -1.01221508E-05  5.98709045E-03  5.63301739E-02 -5.83165866E-02
 -3.35276709E-02 -1.14881853E-06  1.69063175E-01 -2.76345843E-01 -1.58878169E-01
 -5.44392677E-06  2.43745249E-03  3.26181515E-02  5.86550296E-02  3.34325176E-01
 -1.23581436E-01 -2.11905127E-01  2.73365448E-06  5.52374696E-01 -3.03187050E-01
 -5.19874927E-01  6.70657879E-06  6.93352717E-02  2.52038207E-01  1.84261053E-01
  8.12273068E-01 -1.91107787E-16  3.64509176E-22 -2.33285873E-20  1.00000000E+00
  2.19563954E-03  3.44606721E-02  8.02097393E-03  7.57981271E-02 -9.02702160E-02
  3.87612917E-08 -5.19743220E-06  2.03558919E-01 -3.49655361E-01  1.64342651E-07
 -2.20364118E-05  1.88559841E-02  1.38909846E-01 -1.12200531E-01 -8.50185014E-02
 -2.91314092E-06  2.76345843E-01 -2.82643856E-01 -2.59697722E-01 -8.89848738E-06
  7.99342847E-03  6.55270680E-02  6.20784703E-02  2.75067324E-01  1.19251907E-01
 -1.81587418E-01  2.34254483E-06  3.03187050E-01  3.85961593E-01 -2.85348599E-01
  3.68110243E-06  1.51918615E-02  3.36032268E-02  4.21389975E-17 -1.63464077E-16
  5.69754058E-01 -6.64897596E-38  4.25534462E-36  1.82409015E-16  1.00000000E+00
  4.20557612E-10  6.60067271E-09 -2.97453567E-09 -2.81093337E-08  3.87612917E-08
  1.42514118E-02  1.92744018E-12 -7.54887461E-08  1.64342651E-07  9.35022495E-02
  8.17208651E-12  1.08407791E-02  7.98627607E-02 -8.50185014E-02 -1.32022848E-02
 -1.67483791E-06  1.58878169E-01 -2.59697722E-01  1.97564294E-02 -5.11596399E-06
  6.48343842E-03  5.31487474E-02  1.06445972E-01  4.71658025E-01 -1.81587418E-01
 -8.62157114E-02  4.01676233E-06  5.19874927E-01 -2.85348599E-01  6.30873669E-02
  6.31198746E-06  1.86387208E-01  4.12274139E-01 -6.40330067E-23  3.11782984E-22
 -6.64897596E-38  5.69754058E-01 -8.11642574E-42  0.00000000E+00  0.00000000E+00
  1.00000000E+00  1.45380937E-07  2.28176106E-06  3.98850162E-07  3.76913022E-06
 -5.19743220E-06  1.92744018E-12  1.42514116E-02  1.01221508E-05 -2.20364118E-05
  8.17208651E-12  9.35022484E-02  3.71456996E-07  2.73648056E-06 -2.91314092E-06
 -1.67483791E-06  3.56769878E-02  5.44392677E-06 -8.89848738E-06 -5.11596399E-06
  1.69063175E-01  1.39559190E-07  1.14405284E-06 -1.37319240E-06 -6.08456292E-06
  2.34254483E-06  4.01676233E-06  2.25152289E-01 -6.70657879E-06  3.68110243E-06
  6.31198746E-06  5.52374696E-01 -5.39584771E-06 -1.19351993E-05  1.41949327E-21
 -1.99541110E-20  4.25534462E-36 -8.11642574E-42  5.69754058E-01  0.00000000E+00
  0.00000000E+00  0.00000000E+00  1.00000000E+00  5.45935613E-11  2.85812531E-04
  5.19895182E-16  1.86154652E-05 -6.19452071E-05 -3.58076061E-05 -4.56283604E-09
  6.09320968E-03 -1.91151374E-02 -1.10495605E-02 -1.40800624E-06  8.15148090E-21
  6.75724144E-07 -1.48997155E-06 -2.58132622E-06 -6.02120631E-11  1.95562161E-03
 -4.08941867E-03 -7.08478200E-03 -1.65259756E-07  7.19268136E-14  4.15410941E-05
  4.89409573E-16  1.82802606E-05  2.40491008E-11 -7.03228276E-05  1.74627732E-11
  6.05549673E-03  7.51068528E-09 -2.19622609E-02  5.45373379E-09  4.99133253E-11
  2.78470365E-04  1.94105749E-06  1.47907658E-02  1.69614013E-02 -2.90838314E-02
 -3.60745970E-07  5.86544882E-02  6.20779699E-02 -1.06445522E-01 -1.32031412E-06
  1.00000000E+00  4.81707118E-06  4.96295368E-03  1.86154652E-05  4.31276763E-03
 -8.32432553E-03 -4.81190045E-03 -6.13163380E-07  5.71104315E-02 -1.40276803E-01
 -8.10874118E-02 -1.03326808E-05  6.75724144E-07  6.47248582E-04 -8.25533244E-04
 -1.43020892E-03 -3.33610797E-08  2.34288761E-02 -3.84601290E-02 -6.66308960E-02
 -1.55423351E-06  1.25221105E-07  1.06954037E-03  1.82802606E-05  4.26841750E-03
  3.25705026E-09 -9.52405606E-03  2.36504186E-09  5.68334858E-02  5.51925013E-08
 -1.61390348E-01  4.00769301E-08  4.58563211E-06  4.86135818E-03  1.47907658E-02
  1.75746846E-01  1.26810122E-01 -2.17442188E-01 -2.69707907E-06  3.34322777E-01
  2.75065683E-01 -4.71657017E-01 -5.85027352E-06  2.19058872E-01  1.00000000E+00
  1.50309222E-05  7.12217152E-03  6.19452071E-05  8.32432553E-03 -1.44684121E-02
 -9.45528801E-03 -1.20485376E-06  5.89157145E-02 -1.12632514E-01 -8.60245512E-02
 -1.09618030E-05  1.48997155E-06  8.25533244E-04 -7.82181986E-04 -1.83572150E-03
 -4.28200736E-08  1.57496791E-02 -1.19546313E-02 -4.58431830E-02 -1.06933893E-06
  2.38386103E-07  9.16178345E-04 -2.40491008E-11 -3.25705026E-09  1.86894342E-03
  7.39777388E-09 -1.83703716E-15 -2.31771214E-08  3.60048329E-02  6.76820649E-08
 -1.68070111E-14 -2.39113743E-06 -1.16543064E-03 -1.69614013E-02 -1.26810122E-01
 -6.21544876E-03  1.78080415E-01  2.20884900E-06 -1.23580658E-01  1.19250771E-01
  1.81587177E-01  2.25234569E-06  3.13932847E-17  7.44074525E-17  1.00000000E+00
  5.73135175E-06  2.71571297E-03  3.58076061E-05  4.81190045E-03 -9.45528801E-03
 -3.57693574E-03 -6.96469201E-07  3.40563991E-02 -8.60245512E-02 -1.35414696E-02
 -6.33650190E-06  2.58132622E-06  1.43020892E-03 -1.83572150E-03 -2.90290868E-03
 -7.41843551E-08  2.72857959E-02 -4.58431830E-02 -6.49152039E-02 -1.85259418E-06
  4.12751602E-07  1.58630925E-03  7.03228276E-05  9.52405606E-03  7.39777389E-09
 -1.97631493E-02  5.37174544E-09  6.77730419E-02  6.76820649E-08 -1.61906691E-01
  4.91459767E-08  1.51570128E-05  7.38746627E-03  2.90838314E-02  2.17442188E-01
  1.78080415E-01 -2.07716433E-01 -3.78752857E-06  2.11904604E-01  1.81587177E-01
 -8.62181744E-02 -3.86211265E-06  8.28701330E-17  0.00000000E+00  0.00000000E+00
  1.00000000E+00  1.28765564E-09  6.10135842E-07  4.56283604E-09  6.13163380E-07
 -1.20485376E-06 -6.96469201E-07  1.88872075E-03  4.33968596E-06 -1.09618030E-05
 -6.33650190E-06  3.61852702E-02  6.02120631E-11  3.33610797E-08 -4.28200736E-08
 -7.41843551E-08  2.77417839E-04  6.36468978E-07 -1.06933893E-06 -1.85259418E-06
  1.45065877E-02  7.52604117E-12  2.89244878E-08 -1.74627732E-11 -2.36504186E-09
 -1.83703716E-15  5.37174544E-09  1.86894342E-03 -1.68296028E-08 -1.68070111E-14
  4.91459767E-08  3.60048329E-02 -2.13169655E-10 -1.03898021E-07  3.60745970E-07
  2.69707907E-06  2.20884900E-06 -3.78752857E-06  9.76392782E-02  2.62839276E-06
  2.25234569E-06 -3.86211265E-06  2.25150607E-01 -1.29268176E-20  3.69512414E-20
  2.25609223E-36  0.00000000E+00  1.00000000E+00  2.48570910E-03  3.30122316E-02
  6.09320968E-03  5.71104315E-02 -5.89157145E-02 -3.40563991E-02 -4.33968596E-06
  1.70611840E-01 -2.77784805E-01 -1.60574310E-01 -2.04614139E-05  1.95562161E-03
  2.34288761E-02 -1.57496791E-02 -2.72857959E-02 -6.36468978E-07  9.45807376E-02
 -1.02685503E-01 -1.77899223E-01 -4.14968056E-06  4.68740426E-04  1.18674964E-02
  6.05549673E-03  5.68334858E-02  2.31771214E-08 -6.77730419E-02  1.68296028E-08
  1.70062969E-01  1.09473362E-07 -3.20114935E-01  7.94918904E-08  2.43033294E-03
  3.25597550E-02  5.86544882E-02  3.34322777E-01  1.23580658E-01 -2.11904604E-01
 -2.62839276E-06  5.52372052E-01  3.03185954E-01 -5.19875041E-01 -6.44835351E-06
  1.84261053E-01  8.12273068E-01 -4.77769468E-17  0.00000000E+00  0.00000000E+00
  1.00000000E+00  9.79028925E-03  7.96474533E-02  1.91151374E-02  1.40276803E-01
 -1.12632514E-01 -8.60245512E-02 -1.09618030E-05  2.77784805E-01 -2.81668599E-01
 -2.61442016E-01 -3.33146273E-05  4.08941867E-03  3.84601290E-02 -1.19546313E-02
 -4.58431830E-02 -1.06933893E-06  1.02685503E-01 -1.69040408E-02 -1.93143675E-01
 -4.50527293E-06  1.12427356E-03  1.74737448E-02 -7.51068528E-09 -5.51925013E-08
  3.60048329E-02  6.76820649E-08 -1.68070111E-14 -1.09473362E-07  1.70062969E-01
  2.06065190E-07 -5.11707193E-14 -1.59957066E-03 -1.31275937E-02 -6.20779699E-02
 -2.75065683E-01  1.19250771E-01  1.81587177E-01  2.25234569E-06 -3.03185954E-01