Jobname.Temp
SP        R                             6-31G               
Number of atoms                            I                8
Charge                                     I                0
Multiplicity                               I                1
Number of electrons                        I               18
Number of alpha electrons                  I                9
Number of beta electrons                   I                9
Atomic numbers                             I   N=           8
           1           6           1           1           6           1
           1           1
Current cartesian coordinates              R   N=          24
  2.18603772E+00 -1.40010348E+00  1.32616889E+00  1.42151302E+00  3.23240540E-05
 -9.95680530E-06  2.18610411E+00  1.84856576E+00  5.49356834E-01  2.18597378E+00
 -4.48534328E-01 -1.87541300E+00 -1.42149332E+00  3.40711083E-05  9.20724572E-06
 -2.18601731E+00 -1.40017606E+00  1.32608973E+00 -2.18635424E+00  1.84845107E+00
  5.49351534E-01 -2.18586223E+00 -4.48601332E-01 -1.87554949E+00
Nuclear charges                            R   N=           8
  1.00000000E+00  6.00000000E+00  1.00000000E+00  1.00000000E+00  6.00000000E+00
  1.00000000E+00  1.00000000E+00  1.00000000E+00
Number of basis functions                  I               30
Number of contracted shells                I               18
Number of primitive shells                 I               44
Highest angular momentum                   I                1
Largest degree of contraction              I                6
Shell types                                I   N=          18
           0           0           0          -1          -1           0
           0           0           0           0          -1          -1
           0           0           0           0           0           0
Number of primitives per shell             I   N=          18
           3           1           6           3           1           3
           1           3           1           6           3           1
           3           1           3           1           3           1
Shell to atom map                          I   N=          18
           1           1           2           2           2           3
           3           4           4           5           5           5
           6           6           7           7           8           8
Primitive exponents                        R   N=          44
  1.87311370E+01  2.82539370E+00  6.40121700E-01  1.61277800E-01  3.04752490E+03
  4.57369510E+02  1.03948690E+02  2.92101550E+01  9.28666300E+00  3.16392700E+00
  7.86827240E+00  1.88128850E+00  5.44249300E-01  1.68714400E-01  1.87311370E+01
  2.82539370E+00  6.40121700E-01  1.61277800E-01  1.87311370E+01  2.82539370E+00
  6.40121700E-01  1.61277800E-01  3.04752490E+03  4.57369510E+02  1.03948690E+02
  2.92101550E+01  9.28666300E+00  3.16392700E+00  7.86827240E+00  1.88128850E+00
  5.44249300E-01  1.68714400E-01  1.87311370E+01  2.82539370E+00  6.40121700E-01
  1.61277800E-01  1.87311370E+01  2.82539370E+00  6.40121700E-01  1.61277800E-01
  1.87311370E+01  2.82539370E+00  6.40121700E-01  1.61277800E-01
Contraction coefficients                   R   N=          44
  3.34945995E-02  2.34726947E-01  8.13757318E-01  1.00000000E+00  1.83470016E-03
  1.40373012E-02  6.88426061E-02  2.32184421E-01  4.67941342E-01  3.62312032E-01
 -1.19332409E-01 -1.60854212E-01  1.14345648E+00  1.00000000E+00  3.34945995E-02
  2.34726947E-01  8.13757318E-01  1.00000000E+00  3.34945995E-02  2.34726947E-01
  8.13757318E-01  1.00000000E+00  1.83470016E-03  1.40373012E-02  6.88426061E-02
  2.32184421E-01  4.67941342E-01  3.62312032E-01 -1.19332409E-01 -1.60854212E-01
  1.14345648E+00  1.00000000E+00  3.34945995E-02  2.34726947E-01  8.13757318E-01
  1.00000000E+00  3.34945995E-02  2.34726947E-01  8.13757318E-01  1.00000000E+00
  3.34945995E-02  2.34726947E-01  8.13757318E-01  1.00000000E+00
P(S=P) Contraction coefficients            R   N=          44
  0.00000000E+00  0.00000000E+00  0.00000000E+00  0.00000000E+00  0.00000000E+00
  0.00000000E+00  0.00000000E+00  0.00000000E+00  0.00000000E+00  0.00000000E+00
  6.89990956E-02  3.16423980E-01  7.44308252E-01  1.00000000E+00  0.00000000E+00
  0.00000000E+00  0.00000000E+00  0.00000000E+00  0.00000000E+00  0.00000000E+00
  0.00000000E+00  0.00000000E+00  0.00000000E+00  0.00000000E+00  0.00000000E+00
  0.00000000E+00  0.00000000E+00  0.00000000E+00  6.89990956E-02  3.16423980E-01
  7.44308252E-01  1.00000000E+00  0.00000000E+00  0.00000000E+00  0.00000000E+00
  0.00000000E+00  0.00000000E+00  0.00000000E+00  0.00000000E+00  0.00000000E+00
  0.00000000E+00  0.00000000E+00  0.00000000E+00  0.00000000E+00
Coordinates of each shell                  R   N=          54
  2.18603772E+00 -1.40010348E+00  1.32616889E+00  2.18603772E+00 -1.40010348E+00
  1.32616889E+00  1.42151302E+00  3.23240540E-05 -9.95680530E-06  1.42151302E+00
  3.23240540E-05 -9.95680530E-06  1.42151302E+00  3.23240540E-05 -9.95680530E-06
  2.18610411E+00  1.84856576E+00  5.49356834E-01  2.18610411E+00  1.84856576E+00
  5.49356834E-01  2.18597378E+00 -4.48534328E-01 -1.87541300E+00  2.18597378E+00
 -4.48534328E-01 -1.87541300E+00 -1.42149332E+00  3.40711083E-05  9.20724572E-06
 -1.42149332E+00  3.40711083E-05  9.20724572E-06 -1.42149332E+00  3.40711083E-05
  9.20724572E-06 -2.18601731E+00 -1.40017606E+00  1.32608973E+00 -2.18601731E+00
 -1.40017606E+00  1.32608973E+00 -2.18635424E+00  1.84845107E+00  5.49351534E-01
 -2.18635424E+00  1.84845107E+00  5.49351534E-01 -2.18586223E+00 -4.48601332E-01
 -1.87554949E+00 -2.18586223E+00 -4.48601332E-01 -1.87554949E+00
Overlap Matrix                             R   N=         465
  1.00000000E+00  6.58292049E-01  1.00000000E+00  3.16338312E-02  9.13325768E-02
  1.00000000E+00  2.68807045E-01  4.72617137E-01  2.19058872E-01  1.00000000E+00
  1.34297490E-01  9.78779146E-02 -1.57746792E-16  1.22042783E-17  1.00000000E+00
 -2.45949834E-01 -1.79251726E-01  1.04734118E-21 -9.46127817E-22  0.00000000E+00
  1.00000000E+00  2.32958451E-01  1.69783422E-01  1.45269969E-22  2.03420329E-21
 -3.43961619E-37  0.00000000E+00  1.00000000E+00  3.73928265E-01  7.01004025E-01
  1.84261053E-01  8.12273068E-01  1.77912098E-16  2.39682497E-21  1.00675119E-22
  1.00000000E+00  1.89570483E-01  2.15173618E-01 -3.33044919E-17  1.66805900E-16
  5.69754058E-01  0.00000000E+00 -1.83640492E-38  0.00000000E+00  1.00000000E+00
 -3.47175728E-01 -3.94064816E-01 -3.54873319E-22 -3.64878054E-22  0.00000000E+00
  5.69754058E-01  0.00000000E+00  0.00000000E+00  0.00000000E+00  1.00000000E+00
  3.28837465E-01  3.73249811E-01  9.09042385E-23 -2.54960876E-23 -1.83640492E-38
  0.00000000E+00  5.69754058E-01  0.00000000E+00  0.00000000E+00  0.00000000E+00
  1.00000000E+00  1.94106589E-02  1.52260924E-01  3.16364988E-02  2.68818917E-01
  1.34315930E-01  3.24732383E-01  9.65074168E-02  3.73935871E-01  1.89590814E-01
  4.58369137E-01  1.36223006E-01  1.00000000E+00  1.52260924E-01  4.06686973E-01
  9.13347014E-02  4.72625752E-01  9.78882747E-02  2.36662119E-01  7.03337609E-02
  7.01012658E-01  2.15194954E-01  5.20271646E-01  1.54619851E-01  6.58292049E-01
  1.00000000E+00  1.94213565E-02  1.52294389E-01  3.16495486E-02  2.68876989E-01
  1.34326184E-01 -7.88192795E-02 -3.29533896E-01  3.73973069E-01  1.89577417E-01
 -1.11239335E-01 -4.65078238E-01  1.94177410E-02  1.52283080E-01  1.00000000E+00
  1.52294389E-01  4.06742018E-01  9.13450928E-02  4.72667889E-01  9.78806869E-02
 -5.74339641E-02 -2.40124473E-01  7.01054879E-01  2.15171231E-01 -1.26257152E-01
 -5.27865915E-01  1.52283080E-01  4.06723417E-01  6.58292049E-01  1.00000000E+00
  3.25379593E-05  1.31848617E-02  3.68768009E-07  8.92090041E-03 -2.16758053E-02
  1.33199873E-08  1.46111612E-07  4.94720431E-02 -1.11390420E-01  6.84504661E-08
  7.50857173E-07  3.25335712E-05  1.31843557E-02  3.25579687E-05  1.31871687E-02
  1.00000000E+00  6.78885383E-03  1.03183956E-01  8.92090041E-03  1.34176487E-01
 -2.02405754E-01  1.24380249E-07  1.36437058E-06  2.92864351E-01 -5.12945046E-01
  3.15209579E-07  3.45764444E-06  6.78835988E-03  1.03180833E-01  6.79110580E-03
  1.03198194E-01  2.19058872E-01  1.00000000E+00  1.30489705E-02  9.53747294E-02
  2.16758053E-02  2.02405754E-01 -2.69045741E-01  2.09346890E-07  2.29639946E-06
  2.29072729E-01 -2.21242570E-01  2.56500332E-07  2.81364211E-06  1.30482464E-02
  9.53735078E-02  1.30531354E-02  9.53866083E-02  8.57996759E-17  5.48759137E-17
  1.00000000E+00 -5.06450351E-03 -3.70163800E-02 -1.33199873E-08 -1.24380249E-07
  2.09346890E-07  7.16274397E-02 -1.41115917E-12 -1.40767357E-07  2.56500332E-07
  1.96164080E-01 -1.72900967E-12  6.68591698E-03  4.88693528E-02 -1.62308454E-03
 -1.18607924E-02  6.41748506E-23  5.94324413E-23 -4.41437288E-37  1.00000000E+00
  4.79691469E-03  3.50605773E-02 -1.46111612E-07 -1.36437058E-06  2.29639946E-06
 -1.41115917E-12  7.16274397E-02 -1.54412652E-06  2.81364211E-06 -1.72900967E-12
  1.96164080E-01  1.98692435E-03  1.45230201E-02 -6.78596350E-03 -4.95888551E-02
 -1.21791773E-21  6.34705224E-22 -3.93775537E-37  3.36789923E-42  1.00000000E+00
  6.91105622E-02  2.51540849E-01  4.94720431E-02  2.92864351E-01 -2.29072729E-01
  1.40767357E-07  1.54412652E-06  5.05689377E-01 -5.90524246E-01  3.62882731E-07
  3.98058796E-06  6.91082531E-02  2.51535735E-01  6.91210886E-02  2.51564162E-01
  1.84261053E-01  8.12273068E-01  0.00000000E+00  0.00000000E+00  0.00000000E+00
  1.00000000E+00  1.64501551E-01  3.64330548E-01  1.11390420E-01  5.12945046E-01
 -2.21242570E-01  2.56500332E-07  2.81364211E-06  5.90524246E-01 -1.83901707E-01
  4.23760239E-07  4.64837470E-06  1.64499068E-01  3.64329845E-01  1.64523756E-01
  3.64357856E-01  1.18957340E-17  0.00000000E+00  5.69754058E-01  0.00000000E+00
  0.00000000E+00  1.82409015E-16  1.00000000E+00 -6.38455487E-02 -1.41402215E-01
 -6.84504661E-08 -3.15209579E-07  2.56500332E-07  1.96164080E-01 -1.72900967E-12
 -3.62882731E-07  4.23760239E-07  5.05689377E-01 -2.85647018E-12  8.42892661E-02
  1.86682488E-01 -2.04576108E-02 -4.53058658E-02 -3.54873319E-22  0.00000000E+00
  0.00000000E+00  5.69754058E-01  0.00000000E+00  0.00000000E+00  0.00000000E+00
  1.00000000E+00  6.04721963E-02  1.33931068E-01 -7.50857173E-07 -3.45764444E-06
  2.81364211E-06 -1.72900967E-12  1.96164080E-01 -3.98058796E-06  4.64837470E-06
 -2.85647018E-12  5.05689377E-01  2.50491287E-02  5.54784007E-02 -8.55313428E-02
 -1.89419555E-01 -9.09042385E-23  0.00000000E+00  0.00000000E+00  0.00000000E+00
  5.69754058E-01  0.00000000E+00  0.00000000E+00  0.00000000E+00  1.00000000E+00
  1.47108579E-03  5.37867283E-02  3.25373531E-05  6.78878560E-03 -1.30488347E-02
 -5.06470803E-03  4.79664869E-03  6.91102432E-02 -1.64500757E-01 -6.38484833E-02
  6.04691805E-02  4.10574958E-05  1.25543382E-02  4.11040055E-05  1.25601185E-02
  3.16347910E-02  2.68811317E-01 -1.34299803E-01 -2.45967357E-01  2.32945408E-01
  3.73931002E-01 -1.89571698E-01 -3.47196708E-01  3.28815498E-01  1.00000000E+00
  5.37867283E-02  2.14080813E-01  1.31847918E-02  1.03183525E-01 -9.53742993E-02
 -3.70180932E-02  3.50588399E-02  2.51540143E-01 -3.64329452E-01 -1.41408972E-01
  1.33924632E-01  1.25543382E-02  8.70573551E-02  1.25601185E-02  8.70821775E-02
  9.13333413E-02  4.72620237E-01 -9.78784923E-02 -1.79262468E-01  1.69771994E-01
  7.01007132E-01 -2.15174370E-01 -3.94087482E-01  3.73223791E-01  6.58292049E-01
  1.00000000E+00  4.10406671E-05  1.25522458E-02  3.25060966E-05  6.78526648E-03
 -1.30431829E-02  6.68241431E-03  1.98605489E-03  6.90937900E-02 -1.64476853E-01
  8.42664310E-02  2.50445048E-02  1.46941742E-03  5.37619596E-02  4.10602024E-05
  1.25546747E-02  3.16372968E-02  2.68822469E-01 -1.34365359E-01  3.24716829E-01
  9.65045760E-02  3.73938146E-01 -1.89658879E-01  4.58343061E-01  1.36217771E-01
  1.94131331E-02  1.52268665E-01  1.00000000E+00  1.25522458E-02  8.70483684E-02
  1.31811860E-02  1.03161270E-01 -9.53619948E-02  4.88568137E-02  1.45205474E-02
  2.51503701E-01 -3.64310693E-01  1.86647308E-01  5.54727353E-02  5.37619596E-02
  2.14019937E-01  1.25546747E-02  8.70588002E-02  9.13353369E-02  4.72628329E-01
 -9.79233765E-02  2.36648557E-01  7.03310287E-02  7.01015240E-01 -2.15271690E-01
  5.20240790E-01  1.54613535E-01  1.52268665E-01  4.06699706E-01  6.58292049E-01
  1.00000000E+00  4.10998153E-05  1.25595979E-02  3.25608907E-05  6.79143460E-03
 -1.30534449E-02 -1.62340048E-03 -6.78672174E-03  6.91226253E-02 -1.64523234E-01
 -2.04610430E-02 -8.55386003E-02  4.10817758E-05  1.25573563E-02  1.47199249E-03
  5.38001821E-02  3.16405235E-02  2.68836829E-01 -1.34287122E-01 -7.88179062E-02
 -3.29505002E-01  3.73947344E-01 -1.89541556E-01 -1.11248706E-01 -4.65084737E-01
  1.94189485E-02  1.52286857E-01  1.94150808E-02  1.52274758E-01  1.00000000E+00
  1.25595979E-02  8.70799421E-02  1.31875055E-02  1.03200272E-01 -9.53861605E-02
 -1.18627642E-02 -4.95929873E-02  2.51567565E-01 -3.64353508E-01 -4.53130698E-02
 -1.89433968E-01  1.25573563E-02  8.70703160E-02  5.38001821E-02  2.14113876E-01
  9.13379066E-02  4.72638749E-01 -9.78626351E-02 -5.74390744E-02 -2.40128966E-01
  7.01025681E-01 -2.15136417E-01 -1.26271244E-01 -5.27887740E-01  1.52286857E-01
  4.06729630E-01  1.52274758E-01  4.06709729E-01  6.58292049E-01  1.00000000E+00
Core Hamiltonian Matrix                    R   N=         465
 -5.80583279E+00 -4.12150902E+00 -5.66627734E+00 -6.80236761E-01 -1.95959301E+00
 -2.22351724E+01 -2.26145548E+00 -4.12904286E+00 -4.60019883E+00 -9.07495737E+00
 -9.69269180E-01 -5.16570446E-01  6.10249626E-02  4.44512094E-01 -8.47950101E+00
  1.87406684E+00  1.35464557E+00  3.25467785E-06  2.29977914E-05 -1.77273079E-06
 -8.28296870E+00 -1.77507075E+00 -1.28306884E+00  4.35321888E-06  2.83226614E-05
  8.81939189E-06 -9.50347641E-06 -8.28297652E+00 -2.67831436E+00 -4.95940718E+00
 -3.95341269E+00 -7.29535478E+00  4.58505190E-01  2.17811901E-05  2.20256126E-05
 -7.80014866E+00 -1.12485521E+00 -7.92515774E-01  1.02518239E-02  3.33596675E-01
 -4.57099200E+00 -2.31165469E-06  4.74740615E-06  7.80794654E-01 -6.57045419E+00
  2.16826002E+00  2.16196844E+00  5.46763690E-07  1.55088123E-05 -2.31165469E-06
 -4.34293894E+00 -6.03843697E-06  2.80976714E-05 -9.74041973E-06 -5.83333656E+00
 -2.05372501E+00 -2.04774701E+00  7.31295110E-07  1.46787305E-05  4.74740615E-06
 -6.03843697E-06 -4.34294010E+00  1.11089533E-05 -7.92067469E-07 -4.14557794E-06
 -5.83332488E+00 -1.90954298E-01 -1.12789493E+00 -6.80293513E-01 -2.26155031E+00
 -9.69406547E-01 -2.47435508E+00 -7.35353896E-01 -2.67837022E+00 -1.12498158E+00
 -2.86269846E+00 -8.50766643E-01 -5.80584280E+00 -1.12789159E+00 -2.74337756E+00
 -1.95963819E+00 -4.12910854E+00 -5.16647414E-01 -1.78848075E+00 -5.31512991E-01
 -4.95945123E+00 -7.92636127E-01 -2.85433318E+00 -8.48280005E-01 -4.12151366E+00
 -5.66626706E+00 -1.91053798E-01 -1.12817827E+00 -6.80574160E-01 -2.26209186E+00
 -9.69488527E-01  6.00593210E-01  2.51099566E+00 -2.67876008E+00 -1.12492637E+00
  6.94761970E-01  2.90470326E+00 -1.91024619E-01 -1.12810609E+00 -5.80620722E+00
 -1.12812410E+00 -2.74375097E+00 -1.95986176E+00 -4.12950889E+00 -5.16567852E-01
  4.34052637E-01  1.81467875E+00 -4.95983738E+00 -7.92467515E-01  6.92704407E-01
  2.89604491E+00 -1.12805525E+00 -2.74365046E+00 -4.12174400E+00 -5.66652597E+00
 -7.73535066E-04 -2.84939917E-01 -1.71119197E-05 -1.95824872E-01  4.72212066E-01
 -2.42751172E-07 -3.14874643E-06 -1.06648589E+00  2.39507862E+00 -1.25130473E-06
 -1.59747305E-05 -7.73432369E-04 -2.84928959E-01 -7.74002288E-04 -2.84989724E-01
 -2.22351600E+01 -7.46786462E-02 -9.71557644E-01 -1.95824979E-01 -1.36236780E+00
  1.99584723E+00  1.54690006E-06 -1.15625233E-05 -2.75480911E+00  4.70295668E+00
  5.78432534E-06 -2.60203248E-05 -7.46739605E-02 -9.71527250E-01 -7.47041341E-02
 -9.71694429E-01 -4.60019610E+00 -9.07494566E+00 -1.39283227E-01 -8.96674478E-01
 -4.72212333E-01 -1.99584788E+00  2.54186560E+00  1.85391011E-06 -1.86969087E-05
 -2.15418992E+00  2.04384779E+00  3.08855189E-06 -2.10809101E-05 -1.39277050E-01
 -8.96662604E-01 -1.39329676E-01 -8.96788960E-01 -6.10246193E-02 -4.44509229E-01
 -8.47949798E+00  4.82866828E-02  2.96840686E-01  3.21762092E-07  4.10364859E-06
 -6.62287416E-06 -6.40511605E-01 -9.61779138E-08  1.30638894E-05 -2.43307510E-05
 -1.55571042E+00 -5.96675879E-07 -6.37459306E-02 -3.91881829E-01  1.54751370E-02
  9.51165336E-02  4.52892612E-06  3.22945111E-05  1.08828800E-05 -8.28295975E+00
 -4.57351657E-02 -2.81149927E-01  3.21758077E-06  1.53646281E-05 -2.44843802E-05
 -9.62314974E-08 -6.40512069E-01  2.23603830E-05 -3.93901966E-05 -5.96849455E-07
 -1.55571215E+00 -1.89439303E-02 -1.16457650E-01  6.46998614E-02  3.97660619E-01
  4.02146793E-06  2.77185462E-05  6.35160650E-06 -6.70446370E-06 -8.28295477E+00
 -5.52190806E-01 -1.96539227E+00 -1.06648652E+00 -2.75481155E+00  2.15419020E+00
  6.97643229E-06 -7.46732731E-06 -4.18570737E+00  4.78827319E+00  1.70755360E-05
 -2.10384466E-05 -5.52176046E-01 -1.96535110E+00 -5.52300025E-01 -1.96560017E+00
 -3.95341040E+00 -7.29534681E+00 -4.58501787E-01  3.08690476E-05  2.47844133E-05
 -7.80014537E+00 -1.25982292E+00 -2.76047396E+00 -2.39508003E+00 -4.70296241E+00
  2.04384941E+00  1.23314688E-05 -1.01737540E-05 -4.78827714E+00  1.55053237E+00
  1.64200494E-05 -2.06388987E-05 -1.25981122E+00 -2.76046767E+00 -1.26005293E+00
 -2.76072132E+00 -1.02517662E-02 -3.33594097E-01 -4.57099461E+00  9.34753652E-06
  6.88457931E-06 -7.80789170E-01 -6.57046683E+00  4.41499351E-01  8.49014924E-01
  1.62422928E-06  9.06990072E-06 -7.05383394E-06 -1.55571287E+00 -1.00930183E-06
  2.29604167E-05 -3.03323651E-05 -3.12602140E+00 -8.94677560E-07 -5.82869766E-01
 -1.12086617E+00  1.41471644E-01  2.72035839E-01  7.60831483E-07  2.20576318E-05
  9.34753652E-06 -4.34293545E+00 -4.78021864E-06  3.81124858E-05  1.66448445E-05
 -5.83333646E+00 -4.18170268E-01 -8.04139599E-01  1.63450893E-05  3.66153378E-05
 -2.66475260E-05 -1.00942238E-06 -1.55571388E+00  4.35148739E-05 -4.68859590E-05
 -8.94976578E-07 -3.12602248E+00 -1.73216574E-01 -3.33094096E-01  5.91477571E-01
  1.13732800E+00  6.75574824E-07  1.73461754E-05  6.88457931E-06 -4.78021864E-06
 -4.34292966E+00  2.52506886E-05  1.67834875E-05 -5.18427270E-06 -5.83332242E+00
 -1.46131204E-02 -3.91923716E-01 -7.73521268E-04 -7.46781440E-02  1.39282336E-01
  4.82887318E-02 -4.57329336E-02 -5.52190313E-01  1.25982189E+00  4.41520721E-01
 -4.18152044E-01 -5.83027297E-04 -1.09398616E-01 -5.83643596E-04 -1.09444759E-01
 -6.80257045E-01 -2.26149338E+00  9.69287597E-01  1.87420223E+00 -1.77497191E+00
 -2.67834076E+00  1.12486563E+00  2.16839531E+00 -2.05359042E+00 -5.80585416E+00
 -3.91922773E-01 -1.41006092E+00 -2.84938567E-01 -9.71554583E-01  8.96671511E-01
  2.96853495E-01 -2.81138486E-01 -1.96538899E+00  2.76047015E+00  8.49055700E-01
 -8.04109285E-01 -1.09399066E-01 -6.90418930E-01 -1.09449777E-01 -6.90599374E-01
 -1.95960834E+00 -4.12906802E+00  5.16576412E-01  1.35473023E+00 -1.28298029E+00
 -4.95943153E+00  7.92524643E-01  2.16209747E+00 -2.04759740E+00 -4.12152238E+00
 -5.66629113E+00 -5.82796126E-04 -1.09382008E-01 -7.72793215E-04 -7.46433986E-02
  1.39229488E-01 -6.37148224E-02 -1.89365141E-02 -5.52069220E-01  1.25965482E+00
 -5.82716802E-01 -1.73187675E-01 -1.45977417E-02 -3.91754820E-01 -5.83068064E-04
 -1.09402481E-01 -6.80309554E-01 -2.26156202E+00  9.69781332E-01 -2.47421641E+00
 -7.35326123E-01 -2.67836259E+00  1.12540363E+00 -2.86250653E+00 -8.50724764E-01
 -1.90975245E-01 -1.12793803E+00 -5.80578085E+00 -1.09379863E-01 -6.90346281E-01
 -2.84860833E-01 -9.71351838E-01  8.96560639E-01 -3.91785858E-01 -1.16440911E-01
 -1.96511718E+00  2.76033315E+00 -1.12066163E+00 -3.33069410E-01 -3.91753741E-01
 -1.40968934E+00 -1.09405773E-01 -6.90434316E-01 -1.95965009E+00 -4.12910846E+00
  5.16924231E-01 -1.78836610E+00 -5.31488592E-01 -4.95942651E+00  7.93087043E-01
 -2.85413688E+00 -8.48232128E-01 -1.12794391E+00 -2.74343344E+00 -4.12147229E+00
 -5.66619971E+00 -5.83586243E-04 -1.09442482E-01 -7.74070063E-04 -7.47056343E-02
  1.39328589E-01  1.54778495E-02  6.47056654E-02 -5.52294332E-01  1.26000934E+00
  1.41492469E-01  5.91513849E-01 -5.83354853E-04 -1.09425105E-01 -1.46219224E-02
 -3.92027685E-01 -6.80380570E-01 -2.26173754E+00  9.69192575E-01  6.00580258E-01
  2.51076165E+00 -2.67852137E+00  1.12469061E+00  6.94812824E-01  2.90470917E+00
 -1.91028559E-01 -1.12809636E+00 -1.90996161E-01 -1.12801619E+00 -5.80603926E+00
 -1.09440659E-01 -6.90581506E-01 -2.84997121E-01 -9.71709899E-01  8.96780007E-01
  9.51310196E-02  3.97690661E-01 -1.96560535E+00  2.76065866E+00  2.72077268E-01
  1.13739986E+00 -1.09424154E-01 -6.90518098E-01 -3.92035775E-01 -1.41030870E+00
 -1.95970678E+00 -4.12925054E+00  5.16441474E-01  4.34094876E-01  1.81471116E+00
 -4.95961603E+00  7.92286866E-01  6.92787581E-01  2.89617433E+00 -1.12807131E+00
 -2.74365639E+00 -1.12798527E+00 -2.74352779E+00 -4.12164003E+00 -5.66642988E+00
Number of independent functions            I               30
Alpha MO coefficients                      R   N=         900
 -5.56240289E-04  4.08454104E-03  7.02273866E-01  2.51838028E-02  5.75761997E-04
 -1.05844771E-07 -2.46719790E-07 -1.72721842E-02 -2.03058016E-03  3.31388789E-07
  4.91772706E-07 -5.56333500E-04  4.08465924E-03 -5.56452748E-04  4.08545990E-03
  7.05262758E-01  2.53000549E-02 -5.74370565E-04 -1.46637617E-07 -1.77376693E-07
 -1.74002388E-02  2.01239102E-03  6.96448291E-07  4.80731361E-07 -5.56689003E-04
  4.10200810E-03 -5.56842762E-04  4.10179332E-03 -5.56696103E-04  4.10241354E-03
 -1.01277312E-04  4.09726207E-03  7.05320676E-01  2.74698297E-02 -3.30459909E-04
 -6.38993700E-08 -1.94649709E-07 -3.03753450E-02  4.33032859E-03  5.49995981E-07
  5.84606972E-07 -1.01308922E-04  4.09696299E-03 -1.01547836E-04  4.09842290E-03
 -7.02332040E-01 -2.73624845E-02 -3.32842088E-04  1.58823023E-07  2.02866513E-07
  3.03014328E-02  4.33870578E-03 -9.80330751E-07 -7.91071498E-07  9.89183960E-05
 -4.08002235E-03  9.90193405E-05 -4.07953776E-03  9.89643660E-05 -4.08065582E-03
  8.39970068E-02  1.72943392E-02 -1.49665865E-01  2.86263764E-01 -6.09426807E-02
 -6.50137851E-06 -1.89222390E-05  2.40431487E-01 -6.29128256E-03 -1.10755336E-05
 -4.23587225E-06  8.39974329E-02  1.73088517E-02  8.40182966E-02  1.73059554E-02
 -1.49660194E-01  2.86252176E-01  6.09459736E-02 -1.02715516E-05 -1.61539427E-05
  2.40423008E-01  6.29030137E-03 -1.18714506E-05 -5.19276059E-06  8.39951369E-02
  1.72935847E-02  8.39915395E-02  1.73068762E-02  8.40066856E-02  1.73041668E-02
  1.18473821E-01  4.46177238E-02 -1.29508376E-01  2.51205207E-01  1.31903578E-01
 -4.80017497E-06 -2.85923015E-05  2.82120045E-01  3.19243625E-02  5.19702056E-06
 -1.23147519E-05  1.18480302E-01  4.46143665E-02  1.18508006E-01  4.46240837E-02
  1.29513882E-01 -2.51215304E-01  1.31903650E-01  7.12618943E-06  1.18153535E-05
 -2.82134772E-01  3.19258024E-02 -2.59750317E-06  1.08019154E-05 -1.18483950E-01
 -4.46214208E-02 -1.18494605E-01 -4.46216307E-02 -1.18492117E-01 -4.46176442E-02
 -4.84933921E-03 -3.78615981E-03  1.12010965E-05 -2.60924376E-05 -1.11665676E-05
 -2.13375538E-01 -2.37741526E-01 -3.63210793E-05 -8.88078979E-06 -9.18325060E-02
 -1.02305208E-01 -1.53442298E-01 -1.19628864E-01  1.58264014E-01  1.23390530E-01
  7.31165674E-06 -1.90905387E-05  1.91820202E-05 -2.13363808E-01 -2.37705861E-01
 -1.48236143E-05  1.25140123E-05 -9.18325944E-02 -1.02294711E-01 -4.82658267E-03
 -3.77141957E-03 -1.53417424E-01 -1.19608538E-01  1.58247152E-01  1.23381304E-01
 -1.79956551E-01 -1.40323304E-01  3.09430254E-06 -5.14300540E-06  3.61666482E-05
  2.37722592E-01 -2.13385447E-01 -1.46061273E-05  1.35342473E-05  1.02299328E-01
 -9.18131885E-02  9.41629678E-02  7.34230105E-02  8.58028067E-02  6.69104654E-02
 -1.78889350E-07  3.53425603E-07 -4.45960155E-05  2.37720614E-01 -2.13362833E-01
 -1.35260255E-06 -1.85853172E-05  1.02298718E-01 -9.18038299E-02 -1.79942074E-01
 -1.40313081E-01  9.41641738E-02  7.34223885E-02  8.57943064E-02  6.69073842E-02
  8.47238524E-02  7.88394452E-02  1.73624558E-02 -4.03940883E-02  4.16189195E-01
 -1.04854473E-04 -7.33313179E-05 -4.12774317E-02  1.87281491E-01 -3.51906441E-05
 -3.25708855E-05  8.46385728E-02  7.87434395E-02  8.47735092E-02  7.88681311E-02
  1.73656781E-02 -4.04006031E-02 -4.16187527E-01  2.28846684E-05  7.42281129E-05
 -4.12837268E-02 -1.87281195E-01  2.25376078E-05  3.32831436E-05  8.47250607E-02
  7.88397070E-02  8.47730983E-02  7.88564054E-02  8.46392703E-02  7.87561331E-02
  4.73600935E-02  4.41367119E-02 -6.75649939E-06  1.58977109E-05 -1.46101433E-04
 -2.61463937E-01 -1.78201659E-01  2.10585709E-05 -7.64279556E-05 -1.35529438E-01
 -9.23618268E-02 -2.12343503E-01 -1.97920884E-01  1.64900345E-01  1.53683562E-01
 -9.67532242E-06  2.38230652E-05  1.12688700E-04  2.61472919E-01  1.78222600E-01
  1.43163965E-05  5.46349644E-05  1.35531880E-01  9.23776595E-02 -4.74196565E-02
 -4.41982647E-02  2.12300146E-01  1.97877831E-01 -1.64968139E-01 -1.53759751E-01
 -2.17811226E-01 -2.03016406E-01  1.47372930E-06 -6.15834206E-06 -3.20409914E-05
  1.78201165E-01 -2.61461091E-01  2.51848440E-09 -2.11854953E-05  9.23980876E-02
 -1.35542952E-01  6.78474562E-02  6.32315783E-02  1.49924918E-01  1.39734108E-01
 -3.91601325E-06  1.31083532E-05  2.64785166E-05 -1.78203205E-01  2.61484443E-01
 -3.16188710E-07  9.10278530E-06 -9.23962459E-02  1.35559301E-01  2.17807413E-01
  2.03011836E-01 -6.78561936E-02 -6.32424102E-02 -1.49951403E-01 -1.39768332E-01
  1.76070051E-02  7.67902189E-01  9.61075066E-02 -1.17106828E-01 -1.27952603E-01
  1.15242237E-06 -5.11649811E-05 -1.55849757E+00 -4.96457126E-01  3.91695009E-06
 -1.14753574E-04  1.75999238E-02  7.67911818E-01  1.75578621E-02  7.67713519E-01
  9.61148446E-02 -1.17117148E-01  1.27953507E-01  2.55517254E-05 -1.03403816E-05
 -1.55854434E+00  4.96481661E-01  9.28555060E-05 -2.19373156E-05  1.76064843E-02
  7.67933353E-01  1.75919250E-02  7.67893834E-01  1.75695385E-02  7.67784362E-01
  9.48756277E-02  1.02906343E+00  9.06530161E-06  8.73771615E-06  2.68006825E-06
  2.49499194E-01 -9.61075743E-02 -8.63544355E-05  1.01043553E-04  6.97532651E-01
 -2.68645994E-01 -8.12796312E-02 -8.81551039E-01 -1.35945714E-02 -1.47464040E-01
 -1.97712327E-05  4.34087920E-05 -1.22759272E-06  2.49494648E-01 -9.61063198E-02
  3.20824515E-04 -8.53415437E-05  6.97508484E-01 -2.68622287E-01  9.48695007E-02
  1.02889772E+00 -8.12762214E-02 -8.81637622E-01 -1.36028111E-02 -1.47612389E-01
  3.90745640E-02  4.23669354E-01 -1.02474486E-05  1.14490452E-05 -3.11027772E-05
 -9.60852591E-02 -2.49475877E-01  2.43847100E-04  2.19364238E-05 -2.68706664E-01
 -6.97497038E-01  6.26378400E-02  6.79250026E-01 -1.01682924E-01 -1.10319301E+00
 -1.35890839E-05  4.97450460E-06 -1.53029095E-05 -9.60928218E-02 -2.49521482E-01
  3.25026458E-04 -3.62306592E-05 -2.68699786E-01 -6.97574601E-01  3.90714136E-02
  4.23636994E-01  6.26301573E-02  6.79185718E-01 -1.01703267E-01 -1.10334025E+00
  1.49512316E-02  8.05140498E-01  1.28693990E-01 -1.04268071E-01 -4.29282628E-02
 -5.50678432E-05 -2.83844557E-05 -2.35274017E+00  2.51938684E-01 -1.60424291E-04
 -1.84211710E-05  1.49714375E-02  8.05520916E-01  1.49529083E-02  8.05336163E-01
 -1.28688863E-01  1.04261319E-01 -4.29330475E-02  2.21922258E-06  5.60350525E-05
  2.35261675E+00  2.51947394E-01 -8.16176010E-06  1.04547030E-04 -1.49700536E-02
 -8.05361114E-01 -1.49664660E-02 -8.05341672E-01 -1.49462960E-02 -8.05124281E-01
  3.86947090E-02  1.27801564E+00  1.15065532E-06 -4.61028043E-06 -8.87417152E-05
  3.24356491E-01 -8.36575528E-02 -6.04235088E-05 -2.42838532E-04  1.22813715E+00
 -3.16717326E-01 -3.78853509E-02 -1.25187225E+00 -7.92120264E-04 -2.56640305E-02
  1.56647432E-06  4.08494235E-06 -4.99536623E-05 -3.24366234E-01  8.36487732E-02
 -1.37550406E-05 -1.68834951E-04 -1.22815683E+00  3.16704802E-01 -3.86981426E-02
 -1.27802957E+00  3.78881966E-02  1.25197459E+00  7.92209407E-04  2.56748681E-02
  2.14619980E-02  7.07880378E-01 -2.66904097E-05 -7.77822956E-06 -3.66574398E-05
 -8.36617176E-02 -3.24371342E-01  9.12646472E-04 -3.94712905E-04 -3.16808591E-01
 -1.22819260E+00  2.27948012E-02  7.52690864E-01 -4.41882784E-02 -1.46104080E+00
  1.81719478E-05  1.14482337E-05 -8.45689761E-05  8.36498635E-02  3.24344694E-01
 -5.82650499E-04 -5.27074567E-04  3.16763446E-01  1.22806165E+00 -2.14563967E-02
 -7.07881658E-01 -2.27865037E-02 -7.52724588E-01  4.42023707E-02  1.46065520E+00
 -5.70939174E-02 -4.26786639E-01  4.98597149E-02 -2.36123668E-02  3.54721413E-01
  2.49430942E-05 -8.82413639E-05 -1.12605430E+00  1.86045756E+00  1.18891197E-04
 -3.97567726E-04 -5.71074121E-02 -4.27233137E-01 -5.71139397E-02 -4.27627745E-01
 -4.98609064E-02  2.36182983E-02  3.54727587E-01 -3.02052173E-05  6.99275636E-05
  1.12606109E+00  1.86046157E+00 -1.69161840E-04  2.82900116E-04  5.70896106E-02
  4.26821862E-01  5.70814621E-02  4.27459911E-01  5.71217766E-02  4.27389018E-01
  1.13191623E-01  7.84219598E-02 -7.10482721E-03 -3.93073029E-02  6.53801170E-01
  1.45261806E-04 -2.32244915E-04 -5.03017475E-01 -1.00770412E+00 -2.21767122E-04
  4.00685456E-04  1.13370923E-01  7.85206719E-02  1.13521840E-01  7.85708984E-02
 -7.10864777E-03 -3.93195469E-02 -6.53768799E-01  2.73294395E-05 -3.13311475E-04
 -5.02947128E-01  1.00775286E+00 -6.52522882E-05  4.41036989E-04  1.13195147E-01
  7.84530251E-02  1.13323262E-01  7.86467748E-02  1.13530341E-01  7.84793473E-02
 -3.47499381E-03 -1.39047585E-03 -9.27779450E-06  1.25568464E-05  1.28801843E-04
  3.77943667E-01  3.91538854E-01 -1.54618153E-04 -7.67108377E-05 -6.04374586E-01
 -6.26169031E-01  3.24960091E-01  1.24938525E-01 -3.21424162E-01 -1.23692133E-01
 -1.55961481E-06  1.13376825E-05 -2.36686210E-04  3.77894068E-01  3.91532588E-01
 -2.54138072E-05  5.14873775E-04 -6.04214687E-01 -6.25984803E-01 -3.45405981E-03
 -1.33364152E-03  3.24985501E-01  1.24889958E-01 -3.21351594E-01 -1.23514880E-01
  3.73197319E-01  1.43505959E-01 -8.09170835E-06 -1.48299967E-05  3.17921143E-04
 -3.91560581E-01  3.77916380E-01 -1.23407275E-04 -4.58219001E-04  6.26071222E-01
 -6.04309516E-01 -1.83515393E-01 -7.05574123E-02 -1.89579016E-01 -7.28921349E-02