Jobname.Temp
SP        R                             6-31G               
Number of atoms                            I               12
Charge                                     I                0
Multiplicity                               I                1
Number of electrons                        I               42
Number of alpha electrons                  I               21
Number of beta electrons                   I               21
Atomic numbers                             I   N=          12
           1           6           6           1           6           1
           6           1           6           1           6           1
Current cartesian coordinates              R   N=          36
  3.72625688E+00  2.86070194E+00 -7.41119538E-05  2.08512352E+00  1.60105094E+00
  4.50247290E-05  2.42911711E+00 -1.00537788E+00  2.33058873E-05  4.34032689E+00
 -1.79682785E+00 -1.66974593E-04  3.43973267E-01 -2.60609062E+00 -2.01552160E-05
  6.14619177E-01 -4.65710388E+00 -2.49412364E-04 -2.08527993E+00 -1.60097060E+00
  1.13873923E-04 -3.72600389E+00 -2.86074702E+00  5.68265516E-05 -2.42905101E+00
  1.00530656E+00 -5.06786393E-05 -4.34053664E+00  1.79616127E+00 -2.80689728E-04
 -3.43933813E-01  2.60620622E+00  4.26050477E-07 -6.14357304E-01  4.65706781E+00
  4.35816776E-05
Nuclear charges                            R   N=          12
  1.00000000E+00  6.00000000E+00  6.00000000E+00  1.00000000E+00  6.00000000E+00
  1.00000000E+00  6.00000000E+00  1.00000000E+00  6.00000000E+00  1.00000000E+00
  6.00000000E+00  1.00000000E+00
Number of basis functions                  I               66
Number of contracted shells                I               30
Number of primitive shells                 I               84
Highest angular momentum                   I                1
Largest degree of contraction              I                6
Shell types                                I   N=          30
           0           0           0          -1          -1           0
          -1          -1           0           0           0          -1
          -1           0           0           0          -1          -1
           0           0           0          -1          -1           0
           0           0          -1          -1           0           0
Number of primitives per shell             I   N=          30
           3           1           6           3           1           6
           3           1           3           1           6           3
           1           3           1           6           3           1
           3           1           6           3           1           3
           1           6           3           1           3           1
Shell to atom map                          I   N=          30
           1           1           2           2           2           3
           3           3           4           4           5           5
           5           6           6           7           7           7
           8           8           9           9           9          10
          10          11          11          11          12          12
Primitive exponents                        R   N=          84
  1.87311370E+01  2.82539370E+00  6.40121700E-01  1.61277800E-01  3.04752490E+03
  4.57369510E+02  1.03948690E+02  2.92101550E+01  9.28666300E+00  3.16392700E+00
  7.86827240E+00  1.88128850E+00  5.44249300E-01  1.68714400E-01  3.04752490E+03
  4.57369510E+02  1.03948690E+02  2.92101550E+01  9.28666300E+00  3.16392700E+00
  7.86827240E+00  1.88128850E+00  5.44249300E-01  1.68714400E-01  1.87311370E+01
  2.82539370E+00  6.40121700E-01  1.61277800E-01  3.04752490E+03  4.57369510E+02
  1.03948690E+02  2.92101550E+01  9.28666300E+00  3.16392700E+00  7.86827240E+00
  1.88128850E+00  5.44249300E-01  1.68714400E-01  1.87311370E+01  2.82539370E+00
  6.40121700E-01  1.61277800E-01  3.04752490E+03  4.57369510E+02  1.03948690E+02
  2.92101550E+01  9.28666300E+00  3.16392700E+00  7.86827240E+00  1.88128850E+00
  5.44249300E-01  1.68714400E-01  1.87311370E+01  2.82539370E+00  6.40121700E-01
  1.61277800E-01  3.04752490E+03  4.57369510E+02  1.03948690E+02  2.92101550E+01
  9.28666300E+00  3.16392700E+00  7.86827240E+00  1.88128850E+00  5.44249300E-01
  1.68714400E-01  1.87311370E+01  2.82539370E+00  6.40121700E-01  1.61277800E-01
  3.04752490E+03  4.57369510E+02  1.03948690E+02  2.92101550E+01  9.28666300E+00
  3.16392700E+00  7.86827240E+00  1.88128850E+00  5.44249300E-01  1.68714400E-01
  1.87311370E+01  2.82539370E+00  6.40121700E-01  1.61277800E-01
Contraction coefficients                   R   N=          84
  3.34945995E-02  2.34726947E-01  8.13757318E-01  1.00000000E+00  1.83470016E-03
  1.40373012E-02  6.88426061E-02  2.32184421E-01  4.67941342E-01  3.62312032E-01
 -1.19332409E-01 -1.60854212E-01  1.14345648E+00  1.00000000E+00  1.83470016E-03
  1.40373012E-02  6.88426061E-02  2.32184421E-01  4.67941342E-01  3.62312032E-01
 -1.19332409E-01 -1.60854212E-01  1.14345648E+00  1.00000000E+00  3.34945995E-02
  2.34726947E-01  8.13757318E-01  1.00000000E+00  1.83470016E-03  1.40373012E-02
  6.88426061E-02  2.32184421E-01  4.67941342E-01  3.62312032E-01 -1.19332409E-01
 -1.60854212E-01  1.14345648E+00  1.00000000E+00  3.34945995E-02  2.34726947E-01
  8.13757318E-01  1.00000000E+00  1.83470016E-03  1.40373012E-02  6.88426061E-02
  2.32184421E-01  4.67941342E-01  3.62312032E-01 -1.19332409E-01 -1.60854212E-01
  1.14345648E+00  1.00000000E+00  3.34945995E-02  2.34726947E-01  8.13757318E-01
  1.00000000E+00  1.83470016E-03  1.40373012E-02  6.88426061E-02  2.32184421E-01
  4.67941342E-01  3.62312032E-01 -1.19332409E-01 -1.60854212E-01  1.14345648E+00
  1.00000000E+00  3.34945995E-02  2.34726947E-01  8.13757318E-01  1.00000000E+00
  1.83470016E-03  1.40373012E-02  6.88426061E-02  2.32184421E-01  4.67941342E-01
  3.62312032E-01 -1.19332409E-01 -1.60854212E-01  1.14345648E+00  1.00000000E+00
  3.34945995E-02  2.34726947E-01  8.13757318E-01  1.00000000E+00
P(S=P) Contraction coefficients            R   N=          84
  0.00000000E+00  0.00000000E+00  0.00000000E+00  0.00000000E+00  0.00000000E+00
  0.00000000E+00  0.00000000E+00  0.00000000E+00  0.00000000E+00  0.00000000E+00
  6.89990956E-02  3.16423980E-01  7.44308252E-01  1.00000000E+00  0.00000000E+00
  0.00000000E+00  0.00000000E+00  0.00000000E+00  0.00000000E+00  0.00000000E+00
  6.89990956E-02  3.16423980E-01  7.44308252E-01  1.00000000E+00  0.00000000E+00
  0.00000000E+00  0.00000000E+00  0.00000000E+00  0.00000000E+00  0.00000000E+00
  0.00000000E+00  0.00000000E+00  0.00000000E+00  0.00000000E+00  6.89990956E-02
  3.16423980E-01  7.44308252E-01  1.00000000E+00  0.00000000E+00  0.00000000E+00
  0.00000000E+00  0.00000000E+00  0.00000000E+00  0.00000000E+00  0.00000000E+00
  0.00000000E+00  0.00000000E+00  0.00000000E+00  6.89990956E-02  3.16423980E-01
  7.44308252E-01  1.00000000E+00  0.00000000E+00  0.00000000E+00  0.00000000E+00
  0.00000000E+00  0.00000000E+00  0.00000000E+00  0.00000000E+00  0.00000000E+00
  0.00000000E+00  0.00000000E+00  6.89990956E-02  3.16423980E-01  7.44308252E-01
  1.00000000E+00  0.00000000E+00  0.00000000E+00  0.00000000E+00  0.00000000E+00
  0.00000000E+00  0.00000000E+00  0.00000000E+00  0.00000000E+00  0.00000000E+00
  0.00000000E+00  6.89990956E-02  3.16423980E-01  7.44308252E-01  1.00000000E+00
  0.00000000E+00  0.00000000E+00  0.00000000E+00  0.00000000E+00
Coordinates of each shell                  R   N=          90
  3.72625688E+00  2.86070194E+00 -7.41119538E-05  3.72625688E+00  2.86070194E+00
 -7.41119538E-05  2.08512352E+00  1.60105094E+00  4.50247290E-05  2.08512352E+00
  1.60105094E+00  4.50247290E-05  2.08512352E+00  1.60105094E+00  4.50247290E-05
  2.42911711E+00 -1.00537788E+00  2.33058873E-05  2.42911711E+00 -1.00537788E+00
  2.33058873E-05  2.42911711E+00 -1.00537788E+00  2.33058873E-05  4.34032689E+00
 -1.79682785E+00 -1.66974593E-04  4.34032689E+00 -1.79682785E+00 -1.66974593E-04
  3.43973267E-01 -2.60609062E+00 -2.01552160E-05  3.43973267E-01 -2.60609062E+00
 -2.01552160E-05  3.43973267E-01 -2.60609062E+00 -2.01552160E-05  6.14619177E-01
 -4.65710388E+00 -2.49412364E-04  6.14619177E-01 -4.65710388E+00 -2.49412364E-04
 -2.08527993E+00 -1.60097060E+00  1.13873923E-04 -2.08527993E+00 -1.60097060E+00
  1.13873923E-04 -2.08527993E+00 -1.60097060E+00  1.13873923E-04 -3.72600389E+00
 -2.86074702E+00  5.68265516E-05 -3.72600389E+00 -2.86074702E+00  5.68265516E-05
 -2.42905101E+00  1.00530656E+00 -5.06786393E-05 -2.42905101E+00  1.00530656E+00
 -5.06786393E-05 -2.42905101E+00  1.00530656E+00 -5.06786393E-05 -4.34053664E+00
  1.79616127E+00 -2.80689728E-04 -4.34053664E+00  1.79616127E+00 -2.80689728E-04
 -3.43933813E-01  2.60620622E+00  4.26050477E-07 -3.43933813E-01  2.60620622E+00
  4.26050477E-07 -3.43933813E-01  2.60620622E+00  4.26050477E-07 -6.14357304E-01
  4.65706781E+00  4.35816776E-05 -6.14357304E-01  4.65706781E+00  4.35816776E-05
Overlap Matrix                             R   N=        2211
  1.00000000E+00  6.58292049E-01  1.00000000E+00  3.20580344E-02  9.16687672E-02
  1.00000000E+00  2.70688741E-01  4.73979844E-01  2.19058872E-01  1.00000000E+00
  2.90591578E-01  2.10737030E-01  1.22464937E-16  0.00000000E+00  1.00000000E+00
  2.23043405E-01  1.61751091E-01 -7.29954041E-17 -1.85382493E-16  0.00000000E+00
  1.00000000E+00 -2.10952489E-05 -1.52982758E-05  2.45860705E-21  2.85183347E-21
  0.00000000E+00  3.98676737E-36  1.00000000E+00  3.75131472E-01  7.02368863E-01
  1.84261053E-01  8.12273068E-01  0.00000000E+00  1.77912098E-16  0.00000000E+00
  1.00000000E+00  4.08246961E-01  4.62792284E-01 -2.32569778E-17  0.00000000E+00
  5.69754058E-01  0.00000000E+00  0.00000000E+00  0.00000000E+00  1.00000000E+00
  3.13349730E-01  3.55215962E-01 -1.16290964E-17  1.66805900E-16  0.00000000E+00
  5.69754058E-01  0.00000000E+00 -1.82409015E-16  0.00000000E+00  1.00000000E+00
 -2.96363416E-05 -3.35960131E-05  0.00000000E+00  0.00000000E+00  0.00000000E+00
  0.00000000E+00  5.69754058E-01  0.00000000E+00  0.00000000E+00  0.00000000E+00
  1.00000000E+00  3.44468641E-05  1.34005095E-02  2.36442533E-06  1.57051967E-02
  4.63920012E-03 -3.51510765E-02 -2.92906778E-07  5.98510369E-02  1.63064686E-02
 -1.23553610E-01 -1.02954713E-06  1.00000000E+00  7.00088893E-03  1.04512547E-01
  1.57051967E-02  1.81428502E-01  3.37755465E-02 -2.55916276E-01 -2.13249833E-06
  3.39612501E-01  7.19236972E-02 -5.44963640E-01 -4.54107128E-06  2.19058872E-01
  1.00000000E+00  4.84083712E-03  3.47487651E-02 -4.63920012E-03 -3.37755465E-02
  9.41671792E-02  5.41979782E-02  4.51620740E-07 -3.23370882E-02  2.21728588E-01
  5.40528391E-02  4.50411326E-07  7.41972912E-17 -6.20054326E-17  1.00000000E+00
  1.44279461E-02  1.03567482E-01  3.51510765E-02  2.55916276E-01  5.41979782E-02
 -3.09336244E-01 -3.42191645E-06  2.45017122E-01  5.40528391E-02 -1.80694276E-01
 -3.41275275E-06  6.13774891E-17 -9.34488791E-17 -7.42958602E-32  1.00000000E+00
 -3.63556737E-07 -2.60970311E-06  2.92906778E-07  2.13249833E-06  4.51620740E-07
 -3.42191645E-06  1.01320168E-01  2.04167789E-06  4.50411326E-07 -3.41275275E-06
  2.28862422E-01 -9.29153587E-22  1.26941045E-21  1.13366486E-36 -1.88065701E-36
  1.00000000E+00  7.00935223E-02  2.53711803E-01  5.98510369E-02  3.39612501E-01
  3.23370882E-02 -2.45017122E-01 -2.04167789E-06  5.58187512E-01  7.88690370E-02
 -5.97588266E-01 -4.97958160E-06  1.84261053E-01  8.12273068E-01  3.82215574E-16
 -7.85391605E-17  0.00000000E+00  1.00000000E+00  5.99923810E-02  1.32130912E-01
 -1.63064686E-02 -7.19236972E-02  2.21728588E-01  5.40528391E-02  4.50411326E-07
 -7.88690370E-02  5.47043721E-01  8.44361618E-02  7.03589380E-07 -2.32569778E-17
  3.26928154E-16  5.69754058E-01  0.00000000E+00  0.00000000E+00  0.00000000E+00
  1.00000000E+00  1.78805199E-01  3.93811574E-01  1.23553610E-01  5.44963640E-01
  5.40528391E-02 -1.80694276E-01 -3.41275275E-06  5.97588266E-01  8.44361618E-02
 -8.15826862E-02 -5.33107508E-06  0.00000000E+00  1.19563241E-17  0.00000000E+00
  5.69754058E-01  0.00000000E+00  0.00000000E+00  0.00000000E+00  1.00000000E+00
 -4.50555013E-06 -9.92330089E-06  1.02954713E-06  4.54107128E-06  4.50411326E-07
 -3.41275275E-06  2.28862422E-01  4.97958160E-06  7.03589380E-07 -5.33107508E-06
  5.58187512E-01 -3.59245136E-22  0.00000000E+00  0.00000000E+00  0.00000000E+00
  5.69754058E-01  0.00000000E+00  0.00000000E+00  0.00000000E+00  1.00000000E+00
  5.69232714E-04  3.65727798E-02  3.44020842E-05  6.99597813E-03  8.41026752E-03
 -1.26716154E-02 -7.90603205E-07  7.00709402E-02  1.04268886E-01 -1.57100260E-01
 -9.80174709E-06  3.20747575E-02  2.70762666E-01  3.38519045E-01 -1.40183926E-01
 -3.37030330E-05  3.75178652E-01  4.75490942E-01 -1.96905279E-01 -4.73399862E-05
  1.00000000E+00  3.65727798E-02  1.68693205E-01  1.33955503E-02  1.04482046E-01
  6.03959188E-02 -9.09975637E-02 -5.67748967E-06  2.53662064E-01  2.29677377E-01
 -3.46051226E-01 -2.15907128E-05  9.16819528E-02  4.74033268E-01  2.45446238E-01
 -1.01641600E-01 -2.44366832E-05  7.02422345E-01  5.38993670E-01 -2.23202357E-01
 -5.36623322E-05  6.58292049E-01  1.00000000E+00  5.56463145E-11  2.87401959E-04
  7.49441569E-16  2.07796886E-05 -3.03799843E-05 -7.34071594E-05 -1.13727445E-09
  6.32651109E-03 -8.71794163E-03 -2.10651633E-02 -3.26356070E-07  2.37081065E-06
  1.57180774E-02 -2.81441914E-02 -2.16055913E-02 -5.86615457E-07  5.98675569E-02
 -9.88702174E-02 -7.59001912E-02 -2.06077328E-06  3.45109247E-05  1.34075959E-02
  1.00000000E+00  4.86787969E-06  4.98487558E-03  2.07796886E-05  4.59114232E-03
 -3.89441092E-03 -9.41006553E-03 -1.45787240E-07  5.88154297E-02 -6.34509760E-02
 -1.53316600E-01 -2.37528675E-06  1.57180774E-02  1.81507351E-01 -2.04828458E-01
 -1.57241681E-01 -4.26928377E-06  3.39685364E-01 -4.36064185E-01 -3.34755560E-01
 -9.08897994E-06  7.00790903E-03  1.04556128E-01  2.19058872E-01  1.00000000E+00
  8.54935422E-06  4.02669425E-03  3.03799843E-05  3.89441092E-03 -1.35210102E-03
 -8.13107114E-03 -1.25972174E-07  2.66737267E-02  7.69897711E-03 -7.15171809E-02
 -1.10799360E-06  2.81441914E-02  2.04828458E-01 -1.61587684E-01 -2.01867155E-01
 -5.48091424E-06  1.96057579E-01 -3.32617283E-02 -2.01265415E-01 -5.46457635E-06
  1.49293125E-02  1.07103391E-01 -5.33925930E-18 -6.97078430E-17  1.00000000E+00
  1.38183403E-05  6.50835491E-03  7.34071594E-05  9.41006553E-03 -8.13107114E-03
 -1.76341175E-02 -3.04386579E-07  6.44517288E-02 -7.15171809E-02 -1.35510190E-01
 -2.67724506E-06  2.16055913E-02  1.57241681E-01 -2.01867155E-01 -5.35968996E-02
 -4.20756068E-06  1.50508496E-01 -2.01265415E-01  7.44071492E-02 -4.19501849E-06
  3.02319009E-03  2.16884675E-02  1.01305997E-16 -2.38539117E-16  0.00000000E+00
  1.00000000E+00 -1.36385743E-10 -6.42368621E-08  1.13727445E-09  1.45787240E-07
 -1.25972174E-07 -3.04386579E-07  2.01299055E-03  9.98530732E-07 -1.10799360E-06
 -2.67724506E-06  3.72967827E-02  5.86615457E-07  4.26928377E-06 -5.48091424E-06
 -4.20756068E-06  1.01371462E-01  4.08647044E-06 -5.46457635E-06 -4.19501849E-06
  2.28913571E-01 -5.48478078E-07 -3.93480020E-06  3.07136927E-22 -1.74247436E-21
  0.00000000E+00  2.62764916E-36  1.00000000E+00  2.49767178E-03  3.31094614E-02
  6.32651109E-03  5.88154297E-02 -2.66737267E-02 -6.44517288E-02 -9.98530732E-07
  1.73971556E-01 -1.24420108E-01 -3.00636321E-01 -4.65766569E-06  5.98675569E-02
  3.39685364E-01 -1.96057579E-01 -1.50508496E-01 -4.08647044E-06  5.58267409E-01
 -4.78139222E-01 -3.67055513E-01 -9.96595903E-06  7.01257889E-02  2.53782863E-01
  1.84261053E-01  8.12273068E-01  0.00000000E+00 -3.55824196E-16 -2.91607341E-21
  1.00000000E+00  5.53698943E-03  4.49613274E-02  8.71794163E-03  6.34509760E-02
  7.69897711E-03 -7.15171809E-02 -1.10799360E-06  1.24420108E-01  8.49894046E-02
 -2.15007582E-01 -3.33104608E-06  9.88702174E-02  4.36064185E-01 -3.32617283E-02
 -2.01265415E-01 -5.46457635E-06  4.78139222E-01  1.48755565E-01 -3.14371993E-01
 -8.53554376E-06  1.84915634E-01  4.07195706E-01 -4.79213278E-18  0.00000000E+00
  5.69754058E-01  0.00000000E+00  0.00000000E+00  0.00000000E+00  1.00000000E+00
  8.94944839E-03  7.26710939E-02  2.10651633E-02  1.53316600E-01 -7.15171809E-02
 -1.35510190E-01 -2.67724506E-06  3.00636321E-01 -2.15007582E-01 -3.45551289E-01
 -8.04880701E-06  7.59001912E-02  3.34755560E-01 -2.01265415E-01  7.44071492E-02
 -4.19501849E-06  3.67055513E-01 -3.14371993E-01  3.16931899E-01 -6.55252330E-06
  3.74454693E-02  8.24572481E-02  2.32569778E-17 -3.33611800E-16  0.00000000E+00
  5.69754058E-01  1.06383615E-36  3.64818029E-16  0.00000000E+00  1.00000000E+00
 -8.83302294E-08 -7.17256988E-07  3.26356070E-07  2.37528675E-06 -1.10799360E-06
 -2.67724506E-06  3.72967827E-02  4.65766569E-06 -3.33104608E-06 -8.04880701E-06
  1.73971556E-01  2.06077328E-06  9.08897994E-06 -5.46457635E-06 -4.19501849E-06
  2.28913571E-01  9.96595903E-06 -8.53554376E-06 -6.55252330E-06  5.58267409E-01
 -6.79349244E-06 -1.49596921E-05  4.70228482E-22 -2.49426387E-21  0.00000000E+00
  1.06383615E-36  5.69754058E-01  0.00000000E+00  0.00000000E+00  0.00000000E+00
  1.00000000E+00  4.16091569E-10  1.18610537E-04  5.56099231E-11  4.86613063E-06
 -3.71563888E-06 -1.58129715E-05 -7.43977339E-10  2.49726110E-03 -2.40690231E-03
 -1.02432661E-02 -4.81930789E-07  3.44777668E-05  7.00427616E-03 -6.77491099E-03
 -1.36346910E-02 -1.01826618E-06  7.01090933E-02 -8.39387544E-02 -1.68929006E-01
 -1.26159583E-05  5.70621026E-04  3.66090133E-02  3.20604727E-02  2.70699520E-01
  4.79248093E-02 -3.63184574E-01 -4.05958661E-05  3.75138352E-01  6.73268891E-02
 -5.10217734E-01 -5.70308660E-05  1.00000000E+00  1.18610537E-04  4.80417248E-03
  2.87347374E-04  4.98412314E-03 -1.75040395E-03 -7.44934822E-03 -3.50481012E-07
  3.31061264E-02 -1.95457198E-02 -8.31824409E-02 -3.91361300E-06  1.34039291E-02
  1.04533579E-01 -4.86182352E-02 -9.78455089E-02 -7.30729963E-06  2.53746096E-01
 -1.84855695E-01 -3.72027069E-01 -2.77837307E-05  3.66090133E-02  1.68796469E-01
  9.16706900E-02  4.73987635E-01  3.47540878E-02 -2.63373997E-01 -2.94392887E-05
  7.02376662E-01  7.63217866E-02 -5.78383013E-01 -6.46502109E-05  6.58292049E-01
  1.00000000E+00  7.53999971E-14  4.21153671E-05  1.33308343E-20  7.82731223E-07
 -2.72380885E-06 -2.09133115E-06  4.49673628E-11  2.05695673E-03 -6.78667050E-03
 -5.21078246E-03  1.12041149E-07  7.46050168E-16  2.07513604E-05 -7.86606114E-05
 -1.03778395E-05  1.57809272E-09  6.32356361E-03 -2.25930576E-02 -2.98074374E-03
  4.53262935E-07  5.56129547E-11  2.87351922E-04  2.36542316E-06  1.57072112E-02
 -3.27658820E-02  1.35571063E-02  1.80779137E-06  5.98536211E-02 -1.15159856E-01
  4.76481727E-02  6.35371248E-06  3.44419429E-05  1.33999647E-02  1.00000000E+00
  1.28518097E-07  1.08130368E-03  7.82731223E-07  7.04282668E-04 -1.41761702E-03
 -1.08844152E-03  2.34034407E-08  2.43766605E-02 -6.31309120E-02 -4.84716989E-02
  1.04222828E-06  2.07513604E-05  4.58758250E-03 -1.00894082E-02 -1.33111423E-03
  2.02414161E-07  5.87939762E-02 -1.64453764E-01 -2.16966883E-02  3.29927881E-06
  4.86627635E-06  4.98418584E-03  1.57072112E-02  1.81440835E-01 -2.38537388E-01
  9.86964651E-02  1.31608187E-05  3.39623899E-01 -5.07935947E-01  2.10161949E-01
  2.80243401E-05  7.00034939E-03  1.04509197E-01  2.19058872E-01  1.00000000E+00
  3.87711823E-07  1.46801405E-03  2.72380885E-06  1.41761702E-03 -2.57037305E-03
 -2.20542121E-03  4.74205034E-08  2.58790450E-02 -5.35011327E-02 -5.26775141E-02
  1.13266084E-06  7.86606114E-05  1.00894082E-02 -2.05922308E-02 -2.98213868E-03
  4.53475056E-07  6.91328135E-02 -1.61611842E-01 -2.62405355E-02  3.99023304E-06
  1.62365720E-05  7.64877129E-03  3.27658820E-02  2.38537388E-01 -2.55425372E-01
  1.47609211E-01  1.96831574E-05  2.28369726E-01 -1.26910865E-01  1.47206925E-01
  1.96295141E-05  1.00750504E-02  7.23245564E-02 -5.10422182E-18  2.72328026E-17
  1.00000000E+00  2.97656757E-07  1.12703373E-03  2.09133115E-06  1.08844152E-03
 -2.20542121E-03 -1.39128496E-03  3.64093007E-08  1.98698425E-02 -5.26775141E-02
 -2.53380636E-02  8.69653127E-07  1.03778395E-05  1.33111423E-03 -2.98213868E-03
  1.61796094E-03  5.98278002E-08  9.12081955E-03 -2.62405355E-02  3.38208277E-02
  5.26438802E-07 -4.94902728E-07 -2.33140209E-04 -1.35571063E-02 -9.86964651E-02
  1.47609211E-01  4.02538776E-02 -8.14404011E-06 -9.44895257E-02  1.47206925E-01
  1.67962558E-01 -8.12184483E-06 -1.14043879E-02 -8.18673125E-02  9.10959562E-17
  1.87984380E-17  4.37053448E-32  1.00000000E+00 -1.25413208E-11 -4.74858748E-08
 -4.49673628E-11 -2.34034407E-08  4.74205034E-08  3.64093007E-08  3.02029923E-04
 -4.27237177E-07  1.13266084E-06  8.69653127E-07  1.51075520E-02 -1.57809272E-09
 -2.02414161E-07  4.53475056E-07  5.98278002E-08  2.01139999E-03 -1.38694561E-06
  3.99023304E-06  5.26438802E-07  3.72827898E-02 -7.09663269E-10 -3.34310226E-07
 -1.80779137E-06 -1.31608187E-05  1.96831574E-05 -8.14404011E-06  1.01328190E-01
 -1.25998385E-05  1.96295141E-05 -8.12184483E-06  2.28870422E-01 -1.35565349E-06
 -9.73166722E-06 -2.37233282E-22 -1.84756207E-20 -1.76574915E-36 -8.82874576E-37
  1.00000000E+00  4.74336158E-04  1.19542668E-02  2.05695673E-03  2.43766605E-02
 -2.58790450E-02 -1.98698425E-02  4.27237177E-07  9.70943349E-02 -1.66321364E-01
 -1.27700976E-01  2.74579955E-06  6.32356361E-03  5.87939762E-02 -6.91328135E-02
 -9.12081955E-03  1.38694561E-06  1.73929485E-01 -3.22514348E-01 -4.25499126E-02
  6.47029734E-06  2.49729532E-03  3.31064043E-02  5.98536211E-02  3.39623899E-01
 -2.28369726E-01  9.44895257E-02  1.25998385E-05  5.58200011E-01 -5.56978844E-01
  2.30453781E-01  3.07301829E-05  7.00910417E-02  2.53706339E-01  1.84261053E-01
  8.12273068E-01 -3.82215574E-16  0.00000000E+00  0.00000000E+00  1.00000000E+00
  1.80290416E-03  2.78927236E-02  6.78667050E-03  6.31309120E-02 -5.35011327E-02
 -5.26775141E-02  1.13266084E-06  1.66321364E-01 -1.87812052E-01 -2.18750152E-01
  4.70351980E-06  2.25930576E-02  1.64453764E-01 -1.61611842E-01 -2.62405355E-02
  3.99023304E-06  3.22514348E-01 -4.24103128E-01 -7.88995453E-02  1.19977571E-05
  1.05174937E-02  8.54089042E-02  1.15159856E-01  5.07935947E-01 -1.26910865E-01
  1.47206925E-01  1.96295141E-05  5.56978844E-01  2.43966339E-03  2.29949620E-01
  3.06629549E-05  1.24865209E-01  2.75014658E-01  2.32569778E-17 -3.26928154E-16
  5.69754058E-01  0.00000000E+00  0.00000000E+00  0.00000000E+00  1.00000000E+00
  1.38413784E-03  2.14139914E-02  5.21078246E-03  4.84716989E-02 -5.26775141E-02
 -2.53380636E-02  8.69653127E-07  1.27700976E-01 -2.18750152E-01 -7.08612857E-02
  3.61134646E-06  2.98074374E-03  2.16966883E-02 -2.62405355E-02  3.38208277E-02
  5.26438802E-07  4.25499126E-02 -7.88995453E-02  1.63520123E-01  1.58288622E-06
 -3.20580989E-04 -2.60332660E-03 -4.76481727E-02 -2.10161949E-01  1.47206925E-01
  1.67962558E-01 -8.12184483E-06 -2.30453781E-01  2.29949620E-01  4.63056794E-01
 -1.26870059E-05 -1.41340364E-01 -3.11301058E-01 -7.27340454E-18  0.00000000E+00
  0.00000000E+00  5.69754058E-01  0.00000000E+00  0.00000000E+00  0.00000000E+00
  1.00000000E+00 -5.83185709E-08 -9.02246393E-07 -1.12041149E-07 -1.04222828E-06
  1.13266084E-06  8.69653127E-07  1.51075520E-02 -2.74579955E-06  4.70351980E-06
  3.61134646E-06  9.70943348E-02 -4.53262935E-07 -3.29927881E-06  3.99023304E-06
  5.26438802E-07  3.72827898E-02 -6.47029734E-06  1.19977571E-05  1.58288622E-06
  1.73929485E-01 -4.59695492E-07 -3.73302704E-06 -6.35371248E-06 -2.80243401E-05
  1.96295141E-05 -8.12184483E-06  2.28870422E-01 -3.07301829E-05  3.06629549E-05
 -1.26870059E-05  5.58200009E-01 -1.68013013E-05 -3.70047362E-05 -7.26057986E-22
  0.00000000E+00  0.00000000E+00  0.00000000E+00  5.69754058E-01  0.00000000E+00
  0.00000000E+00  0.00000000E+00  1.00000000E+00  3.55827095E-13  6.83566769E-06
  7.55466009E-14  1.28655746E-07 -3.88099750E-07 -2.97983945E-07  7.88192043E-13
  4.74568075E-04 -1.80365957E-03 -1.38485427E-03  3.66305344E-09  5.55794298E-11
  4.86466464E-06 -1.55479415E-05 -4.68669436E-06  8.46737746E-11  2.49691682E-03
 -1.00732307E-02 -3.03642469E-03  5.48586104E-08  4.16368313E-10  1.18642432E-04
  3.44389660E-05  7.00002299E-03 -1.51869685E-02 -9.50240906E-04  2.87254604E-07
  7.00895410E-02 -1.88224678E-01 -1.17771225E-02  3.56018422E-06  5.69554230E-04
  3.65811757E-02  3.20766448E-02  2.70771007E-01 -2.90620046E-01 -2.23143130E-01
 -1.01047527E-05  3.75183975E-01 -4.08202436E-01 -3.13424936E-01 -1.41930493E-05
  1.00000000E+00  6.83566769E-06  8.10313014E-04  4.21391910E-05  1.08179098E-03
 -1.46858032E-03 -1.12757960E-03  2.98254077E-09  1.19578544E-02 -2.78991291E-02
 -2.14210202E-02  5.66603602E-08  2.87301616E-04  4.98349236E-03 -7.32575985E-03
 -2.20824071E-03  3.98959399E-08  3.31033306E-02 -8.18060218E-02 -2.46592014E-02
  4.45513939E-07  1.18642432E-04  4.80497733E-03  1.33996351E-02  1.04507170E-01
 -1.09023854E-01 -6.82156717E-03  2.06213663E-06  2.53703034E-01 -4.14566896E-01
 -2.59392402E-02  7.84134437E-06  3.65811757E-02  1.68717136E-01  9.16834406E-02
  4.74039296E-01 -2.10712015E-01 -1.61788353E-01 -7.32637967E-06  7.02428379E-01
 -4.62716042E-01 -3.55281432E-01 -1.60884675E-05  6.58292049E-01  1.00000000E+00
  5.55080988E-11  2.87194508E-04  7.48210958E-16  2.07694197E-05 -7.87253337E-05
 -1.03895352E-05 -1.66902709E-09  6.32544295E-03 -2.25986605E-02 -2.98238912E-03
 -4.79105960E-07  1.33425961E-20  7.82937581E-07 -3.17384543E-06  1.31358188E-06
 -4.83341551E-11  2.05714306E-03 -7.90661485E-03  3.27236667E-03 -1.20408998E-07
  7.55630690E-14  4.21418651E-05  7.49193920E-16  2.07776230E-05 -4.83795363E-05
  6.30061994E-05 -5.32526555E-10  6.32629627E-03 -1.38840646E-02  1.80816562E-02
 -1.52825629E-07  5.56118482E-11  2.87350262E-04  2.36797421E-06  1.57123587E-02
 -4.63833710E-03  3.51652379E-02 -2.22022819E-06  5.98602235E-02 -1.62984234E-02
  1.23565391E-01 -7.80155006E-06  3.44598263E-05  1.34019441E-02  1.00000000E+00
  4.86123394E-06  4.98201577E-03  2.07694197E-05  4.58985214E-03 -1.00939425E-02
 -1.33211720E-03 -2.13997994E-07  5.88076554E-02 -1.64483810E-01 -2.17072479E-02
 -3.48716128E-06  7.82937581E-07  7.04389309E-04 -1.65165497E-03  6.83582136E-04
 -2.51528782E-08  2.43783937E-02 -7.35474026E-02  3.04395842E-02 -1.12004559E-06
  1.28671200E-07  1.08184567E-03  2.07776230E-05  4.59088282E-03 -6.20203839E-03
  8.07711064E-03 -6.82675030E-08  5.88138661E-02 -1.01051838E-01  1.31603002E-01
 -1.11230473E-06  4.86622316E-06  4.98416295E-03  1.57123587E-02  1.81472347E-01
 -3.37624422E-02  2.55967664E-01 -1.61610345E-05  3.39653020E-01 -7.18857122E-02
  5.44996648E-01 -3.44094620E-05  7.00230988E-03  1.04521371E-01  2.19058872E-01
  1.00000000E+00  1.55374462E-05  7.32377520E-03  7.87253337E-05  1.00939425E-02
 -2.06004631E-02 -2.98426532E-03 -4.79407363E-07  6.91459494E-02 -1.61631049E-01
 -2.62522232E-02 -4.21728893E-06  3.17384543E-06  1.65165497E-03 -3.59645215E-03
  1.61351143E-03 -5.93702707E-08  3.01490980E-02 -7.80020762E-02  3.85363961E-02
 -1.41797339E-06  4.52151413E-07  1.71083566E-03  4.83795363E-05  6.20203839E-03
 -6.52218463E-03  1.11154774E-02 -9.39476903E-08  4.24804632E-02 -3.77770079E-02
  9.77696424E-02 -8.26346159E-07  7.69082691E-06  3.62303969E-03  4.63833710E-03
  3.37624422E-02  9.42028534E-02  5.41756802E-02 -3.42049078E-06  3.23201884E-02
  2.21765368E-01  5.40214736E-02 -3.41075464E-06 -4.84113768E-03 -3.47467831E-02
  1.63118508E-16  3.43532183E-16  1.00000000E+00  4.68345474E-06  2.20760666E-03
  1.03895352E-05  1.33211720E-03 -2.98426532E-03  1.61857480E-03 -6.32683209E-08
  9.12532525E-03 -2.62522232E-02  3.38271551E-02 -5.56563812E-07 -1.31358188E-06
 -6.83582136E-04  1.61351143E-03 -3.65719437E-04  2.45719943E-08 -1.24780206E-02
  3.85363961E-02 -8.40679465E-04  5.86866685E-07 -1.87164766E-07 -7.08187895E-04
 -6.30061994E-05 -8.07711064E-03  1.11154774E-02 -1.24631630E-02  1.22351047E-07
 -5.53236500E-02  9.77696424E-02 -9.00327329E-02  1.07617672E-06 -1.43079295E-05
 -6.74026306E-03 -3.51652379E-02 -2.55967664E-01  5.41756802E-02 -3.09380552E-01
  2.59322187E-05 -2.45033315E-01  5.40214736E-02 -1.80669271E-01  2.58584048E-05
 -1.44308232E-02 -1.03575795E-01  9.22093428E-17  0.00000000E+00  0.00000000E+00
  1.00000000E+00 -5.91512025E-11 -2.78816805E-08  1.66902709E-09  2.13997994E-07
 -4.79407363E-07 -6.32683209E-08  2.01241408E-03  1.46593806E-06 -4.21728893E-06
 -5.56563812E-07  3.72917119E-02  4.83341551E-11  2.51528782E-08 -5.93702707E-08
  2.45719943E-08  3.02075962E-04  4.59137413E-07 -1.41797339E-06  5.86866685E-07
  1.51086516E-02 -7.76783041E-12 -2.93916615E-08  5.32526555E-10  6.82675030E-08
 -9.39476903E-08  1.22351047E-07  2.01287461E-03  4.67593872E-07 -8.26346159E-07
  1.07617672E-06  3.72957629E-02 -5.02165669E-10 -2.36563138E-07  2.22022819E-06
  1.61610345E-05 -3.42049078E-06  2.59322187E-05  1.01348689E-01  1.54706723E-05
 -3.41075464E-06  2.58584048E-05  2.28890864E-01  4.01284766E-07  2.88018141E-06
  1.19066102E-21 -2.53882090E-21  6.63975346E-36  0.00000000E+00  1.00000000E+00
  2.49611092E-03  3.30967854E-02  6.32544295E-03  5.88076554E-02 -6.91459494E-02
 -9.12532525E-03 -1.46593806E-06  1.73956311E-01 -3.22548192E-01 -4.25673114E-02
 -6.83822661E-06  2.05714306E-03  2.43783937E-02 -3.01490980E-02  1.24780206E-02
 -4.59137413E-07  9.70989011E-02 -1.93759467E-01  8.01926023E-02 -2.95074235E-06
  4.74594106E-04  1.19582571E-02  6.32629627E-03  5.88138661E-02 -4.24804632E-02
  5.53236500E-02 -4.67593872E-07  1.73968490E-01 -1.98152859E-01  2.58060731E-01
 -2.18112175E-06  2.49728283E-03  3.31063029E-02  5.98602235E-02  3.39653020E-01
 -3.23201884E-02  2.45033315E-01 -1.54706723E-05  5.58231943E-01 -7.88242971E-02
  5.97601059E-01 -3.77307476E-05  7.01000548E-02  2.53726190E-01  1.84261053E-01
  8.12273068E-01  0.00000000E+00  0.00000000E+00 -5.83214682E-21  1.00000000E+00
  1.00702804E-02  8.17923305E-02  2.25986605E-02  1.64483810E-01 -1.61631049E-01
 -2.62522232E-02 -4.21728893E-06  3.22548192E-01 -4.24109580E-01 -7.89279174E-02
 -1.26793769E-05  7.90661485E-03  7.35474026E-02 -7.80020762E-02  3.85363961E-02
 -1.41797339E-06  1.93759467E-01 -2.89545341E-01  1.60023190E-01 -5.88816411E-06