
Running Job 1 of 1 input
qchem input_3384.0 /aimm/scratch/qchem3384/ 0
/home/epif/aimm/qcprog.exe_s input_3384.0 /aimm/scratch/qchem3384/
8388608
                  Welcome to Q-Chem
     A Quantum Leap Into The Future Of Chemistry


 Q-Chem 6.0, Q-Chem, Inc., Pleasanton, CA (2022)

 E. Epifanovsky,  A. T. B. Gilbert,  Xintian Feng,  Joonho Lee,  Yuezhi Mao,  
 N. Mardirossian,  P. Pokhilko,  A. White,  M. Wormit,  M. P. Coons,  
 A. L. Dempwolff,  Zhengting Gan,  D. Hait,  P. R. Horn,  L. D. Jacobson,  
 I. Kaliman,  J. Kussmann,  A. W. Lange,  Ka Un Lao,  D. S. Levine,  Jie Liu,  
 S. C. McKenzie,  A. F. Morrison,  K. Nanda,  F. Plasser,  D. R. Rehn,  
 M. L. Vidal,  Zhi-Qiang You,  Ying Zhu,  B. Alam,  B. Albrecht,  
 A. Aldossary,  E. Alguire,  J. H. Andersen,  V. Athavale,  D. Barton,  
 K. Begam,  A. Behn,  N. Bellonzi,  Y. A. Bernard,  E. J. Berquist,  
 H. Burton,  A. Carreras,  K. Carter-Fenk,  Romit Chakraborty,  
 Chandrima Chakravarty,  Junhan Chen,  A. D. Chien,  K. D. Closser,  
 V. Cofer-Shabica,  L. Cunha,  S. Dasgupta,  Jia Deng,  M. de Wergifosse,  
 M. Diedenhofen,  Hainam Do,  S. Ehlert,  Po-Tung Fang,  S. Fatehi,  
 Qingguo Feng,  T. Friedhoff,  B. Ganoe,  J. Gayvert,  Qinghui Ge,  
 G. Gidofalvi,  M. Goldey,  J. Gomes,  C. Gonzalez-Espinoza,  S. Gulania,  
 A. Gunina,  J. A. Gyamfi,  M. W. D. Hanson-Heine,  P. H. P. Harbach,  
 A. W. Hauser,  M. F. Herbst,  M. Hernandez Vera,  M. Hodecker,  
 Z. C. Holden,  S. Houck,  Xunkun Huang,  Kerwin Hui,  B. C. Huynh,  
 K. Ikeda,  M. Ivanov,  Hyunjun Ji,  Zuxin Jin,  Hanjie Jiang,  B. Kaduk,  
 S. Kaehler,  R. Kang,  K. Khistyaev,  Jaehoon Kim,  Yongbin Kim,  
 P. Klunzinger,  Z. Koczor-Benda,  Joong Hoon Koh,  D. Kosenkov,  
 Saikiran Kotaru,  L. Koulias,  T. Kowalczyk,  C. M. Krauter,  K. Kue,  
 A. Kunitsa,  T. Kus,  A. Landau,  K. V. Lawler,  D. Lefrancois,  S. Lehtola,  
 Rain Li,  Shaozhi Li,  Yi-Pei Li,  Jiashu Liang,  M. Liebenthal,  
 Hung-Hsuan Lin,  You-Sheng Lin,  Fenglai Liu,  Kuan-Yu Liu,  
 M. Loipersberger,  A. Luenser,  C. Malbon,  A. Manjanath,  P. Manohar,  
 E. Mansoor,  S. F. Manzer,  Shan-Ping Mao,  A. V. Marenich,  T. Markovich,  
 S. Mason,  F. Matz,  S. A. Maurer,  P. F. McLaughlin,  M. F. S. J. Menger,  
 J.-M. Mewes,  S. A. Mewes,  P. Morgante,  Mohammad Mostafanejad,  
 J. W. Mullinax,  K. J. Oosterbaan,  G. Paran,  V. Parravicini,  
 Alexander C. Paul,  Suranjan K. Paul,  F. Pavosevic,  Zheng Pei,  S. Prager,  
 E. I. Proynov,  E. Ramos,  B. Rana,  A. E. Rask,  A. Rettig,  R. M. Richard,  
 F. Rob,  E. Rossomme,  T. Scheele,  M. Scheurer,  M. Schneider,  
 P. E. Schneider,  N. Sergueev,  S. M. Sharada,  Hengyuan Shen,  
 W. Skomorowski,  D. W. Small,  C. J. Stein,  Yingli Su,  Yu-Chuan Su,  
 E. J. Sundstrom,  Zhen Tao,  J. Thirman,  Hung-Yi Tsai,  T. Tsuchimochi,  
 N. M. Tubman,  C. Utku,  S. P. Veccham,  O. Vydrov,  J. Wenzel,  
 Jonathan Wong,  J. Witte,  A. Yamada,  Chou-Hsun Yang,  Kun Yao,  
 S. Yeganeh,  S. R. Yost,  A. Zech,  F. Zeller,  Igor Ying Zhang,  
 Xing Zhang,  Yu Zhang,  D. Zuev,  A. Aspuru-Guzik,  A. T. Bell,  
 N. A. Besley,  K. B. Bravaya,  B. R. Brooks,  D. Casanova,  Jeng-Da Chai,  
 Hsing-Ta Chen,  S. Coriani,  C. J. Cramer,  A. E. DePrince, III,  
 R. A. DiStasio Jr.,  A. Dreuw,  B. D. Dunietz,  T. R. Furlani,  
 W. A. Goddard III,  S. Grimme,  S. Hammes-Schiffer,  T. Head-Gordon,  
 W. J. Hehre,  Chao-Ping Hsu,  T.-C. Jagau,  Yousung Jung,  A. Klamt,  
 Jing Kong,  D. S. Lambrecht,  Xiangyuan Li,  WanZhen Liang,  N. J. Mayhall,  
 C. W. McCurdy,  J. B. Neaton,  T. Neudecker,  C. Ochsenfeld,  
 J. A. Parkhill,  R. Peverati,  V. A. Rassolov,  Haisheng Ren,  Yihan Shao,  
 L. V. Slipchenko,  R. P. Steele,  J. E. Subotnik,  A. J. W. Thom,  
 A. Tkatchenko,  D. G. Truhlar,  T. Van Voorhis,  Fan Wang,  
 T. A. Wesolowski,  K. B. Whaley,  H. L. Woodcock III,  P. M. Zimmerman,  
 S. Faraji,  P. M. W. Gill,  M. Head-Gordon,  J. M. Herbert,  A. I. Krylov

 Contributors to earlier versions of Q-Chem not listed above: 
 R. D. Adamson,  B. Austin,  R. Baer,  J. Baker,  G. J. O. Beran,  
 K. Brandhorst,  S. T. Brown,  E. F. C. Byrd,  Arup K. Chakraborty,  
 G. K. L. Chan,  Chun-Min Chang,  Yunqing Chen,  C.-L. Cheng,  
 Siu Hung Chien,  D. M. Chipman,  D. L. Crittenden,  H. Dachsel,  
 R. J. Doerksen,  A. D. Dutoi,  R. G. Edgar,  J. Fosso-Tande,  
 L. Fusti-Molnar,  D. Ghosh,  A. Ghysels,  A. Golubeva-Zadorozhnaya,  
 J. Gonthier,  M. S. Gordon,  S. R. Gwaltney,  G. Hawkins,  J. E. Herr,  
 A. Heyden,  S. Hirata,  E. G. Hohenstein,  G. Kedziora,  F. J. Keil,  
 C. Kelley,  Jihan Kim,  R. A. King,  R. Z. Khaliullin,  P. P. Korambath,  
 W. Kurlancheek,  A. Laurent,  A. M. Lee,  M. S. Lee,  S. V. Levchenko,  
 Ching Yeh Lin,  D. Liotard,  E. Livshits,  R. C. Lochan,  I. Lotan,  
 L. A. Martinez-Martinez,  P. E. Maslen,  N. Nair,  D. P. O'Neill,  
 D. Neuhauser,  E. Neuscamman,  C. M. Oana,  R. Olivares-Amaya,  R. Olson,  
 T. M. Perrine,  B. Peters,  P. A. Pieniazek,  A. Prociuk,  Y. M. Rhee,  
 J. Ritchie,  M. A. Rohrdanz,  E. Rosta,  N. J. Russ,  H. F. Schaefer III,  
 M. W. Schmidt,  N. E. Schultz,  S. Sharma,  N. Shenvi,  C. D. Sherrill,  
 A. C. Simmonett,  A. Sodt,  T. Stein,  D. Stuck,  K. S. Thanthiriwatte,  
 V. Vanovschi,  L. Vogt,  Tao Wang,  A. Warshel,  M. A. Watson,  
 C. F. Williams,  Q. Wu,  X. Xu,  Jun Yang,  W. Zhang,  Yan Zhao

   Please cite Q-Chem as follows:
  "Software for the frontiers of quantum chemistry:
   An overview of developments in the Q-Chem 5 package"
   J. Chem. Phys. 155, 084801 (2021)
   https://doi.org/10.1063/5.0055522 (open access)

 Q-Chem 6.0.0 for Intel X86 EM64T Linux

 Parts of Q-Chem use Armadillo 9.900.5 (Nocturnal Misbehaviour).
 http://arma.sourceforge.net/

 Q-Chem begins on Sun Feb  5 22:09:13 2023  

 Host: iqmol
0

     Scratch files written to /aimm/scratch/qchem3384//
 Jul222 |scratch|qcdevops|jenkins|workspace|build_RNUM 6466   
 Processing $rem in /opt/qchem/qc600/config/preferences:
 Processing $rem in /home/epif/.qchemrc:
 Symmetry turned off for PCM/SM12/SMD calculation

 Q-Chem warning in module libgen/rem_setup.C, line 3291:

 Neither GIA nor STOLL is specified by user. Use STOLL as the default


 Checking the input file for inconsistencies... 	...done.

--------------------------------------------------------------
User input:
--------------------------------------------------------------
$molecule
-1 1
--
-1 1
Cl   -1.1242249    0.0179827    0.0000000
--
0 1
O    1.9940516   -0.0909265    0.0000000
H    1.0163933   -0.2184602    0.0000000
H    2.0588108    0.8652887    0.0000000
$end

$rem
BASIS  =  def2-SVPD
EDA2  =  2
EDA_BSSE  =  1
GUI  =  0
JOB_TYPE  =  EDA
METHOD  =  wB97XV
SOLVENT_METHOD  =  SMD
$end

$smx
SOLVENT  WATER
$end

--------------------------------------------------------------
 ----------------------------------------------------------------
             Standard Nuclear Orientation (Angstroms)
    I     Atom           X                Y                Z
 ----------------------------------------------------------------
    1      Cl     -1.1242249000     0.0179827000     0.0000000000
    2      O       1.9940516000    -0.0909265000     0.0000000000
    3      H       1.0163933000    -0.2184602000     0.0000000000
    4      H       2.0588108000     0.8652887000     0.0000000000
 ----------------------------------------------------------------
 Nuclear Repulsion Energy =          39.03648268 hartrees
 There are       14 alpha and       14 beta electrons
 Requested basis set is def2-SVPD
 There are 28 shells and 66 basis functions

 Total QAlloc Memory Limit   8000 MB
 Mega-Array Size       188 MB
 MEM_STATIC part       192 MB

 
 Citation of the SMD model:
 Marenich, A.V.; Cramer, C.J.; Truhlar, D.G.
 J. Phys. Chem. B 2009, 113, 6378-6396.
 iSolventCode=           1
 Solvent: water                                                           
 
 vradii
            1           2           3           4
    1   2.3800000   1.5200000   1.2000000   1.2000000
 Changing PCM_VDW_RADII to SMD_RADIUS
 Discretize the solute cavity surface with Lebedev spheres
	Using 110 Lebedev grid points for each H atom
	Using 194 Lebedev grid points for other atoms
	Atomic van der Waals radii will be scaled by 1.20
 Using smooth SwiG surface discretization
 Remove points where switching function is < 1.0e-08
 Keep 439 surface tesserae and discard 169 interior tesserae
 Molecular Surface Area = 94.117 Angst**2


                       Distance Matrix (Angstroms)
             Cl(  1)   O (  2)   H (  3)
   O (  2)  3.120178
   H (  3)  2.153637  0.985941
   H (  4)  3.293880  0.958406  1.503711
 
 A cutoff of  1.0D-12 yielded    399 shell pairs
 There are      2253 function pairs (      2543 Cartesian)
 Smallest overlap matrix eigenvalue = 2.18E-03

 Scale SEOQF with 1.000000e-01/1.000000e-01/1.000000e-01

 Standard Electronic Orientation quadrupole field applied
 Nucleus-field energy     =     0.0000000022 hartrees

 -----------------------------------------------------------------------
  General SCF calculation program by
  Eric Jon Sundstrom, Paul Horn, Yuezhi Mao, Dmitri Zuev, Alec White,
  David Stuck, Shaama M.S., Shane Yost, Joonho Lee, David Small,
  Daniel Levine, Susi Lehtola, Hugh Burton, Evgeny Epifanovsky,
  Bang C. Huynh
 -----------------------------------------------------------------------
================================================================
                 ALMO-EDA with the EDA2 driver                  
================================================================
 The second-generation ALMO-EDA (for DFT):                      
 P. R. Horn, Y. Mao and M. Head-Gordon, PCCP, 18, 23067 (2016)  
 Y. Mao et al. Annu. Rev. Phys. Chem. 72, 641 (2021)            
 Decomposition of the frozen energy:                            
 P. R. Horn, Y. Mao and M. Head-Gordon, JCP, 144, 114107 (2016) 
 Incorporation of implicit solvents:                            
 Y. Mao, M. Loipersberger et al. Chem. Sci., 12, 1398 (2021)    
================================================================
 Using eda2 option set 2
 Option set summary: Frozen orbital wavefunction, initial wavefunction decomposition, and traditional AO-based POL.
--------------------------------
Printing EDA Options
--------------------------------
eda_child_super_basis      0
fragmo_guess_mode          0
child_mp                   0
child_mp_orders            0
cls_elec                   1
cls_disp                   0
scfmi_mode                 1
scfmi_occs                 0
scfmi_virts                0
frz_relax                  0
frz_relax_method           0
dc_pen_start               0
dc_pen_conv                0
dc_pen_increment           0
dc_pen_steps               0
dc_pen_thresh_factor       0
dc_pen_pre_newton_thresh   0
frz_ortho_decomp           1
frz_ortho_decomp_conv      6
plot_mo_ortho_frz          0
frgm_method                2
scfmi_freeze_ss            0
separate_rehyb             0
plot_diff_den              0
eda_nocv                   0
eda_vct_relax              1
disp_free_x                0
disp_free_c                0
eda_bsse                   1
eda_pct_a                  0
eda_covp                   0
--------------------------------
 Attempting to make child job directory: /aimm/scratch/qchem3384//Frg1/
 Attempting to make child job directory: /aimm/scratch/qchem3384//Frg2/
 Creating input file /aimm/scratch/qchem3384/Frg1.input
 using default PutDataFrgm: nothing
 calling putenv with: QCSCRATCH=/aimm/scratch/qchem3384/ 
 Spawning Job For Fragment 0
 Done Job For Fragment 0
 calling putenv with: QCSCRATCH=/aimm/scratch 
 calling putenv with: QCTHREADS=1 
 Creating input file /aimm/scratch/qchem3384/Frg2.input
 using default PutDataFrgm: nothing
 calling putenv with: QCSCRATCH=/aimm/scratch/qchem3384/ 
 Spawning Job For Fragment 1
 Done Job For Fragment 1
 calling putenv with: QCSCRATCH=/aimm/scratch 
 calling putenv with: QCTHREADS=1 
Doing General SCFMI
 Exchange:     0.1670 Hartree-Fock + 1.0000 wB97X-V + LR-HF
 Correlation:  1.0000 wB97X-V
 Using SG-2 standard quadrature grid
 Nonlocal Correlation:  VV10 with C = 0.0100 and b = 6.00 and scale = 1.00000
 Grid used for NLC:  SG-1 standard quadrature
performing fock build before subrot guess so that all methods have access
 C-PCM solvent model [f = (eps-1)/eps], solve by matrix inversion
Printing subrot_rss_gen Method Specification:
Occupied Subspace Method is 0
Virtual Subspace Method is 0
Energy of the unrelaxed supersystem initial determinant -536.413944329551
performing fock build before subrot guess so that all methods have access
Printing subrot_rss_gen Method Specification:
Occupied Subspace Method is 0
Virtual Subspace Method is 0
Energy of the unrelaxed supersystem initial determinant w/ solvent -536.518044210923
write pseudocanon occs and virts to disk
write pseudocanon orbital energies to disk
Tolerance of ortho_decomp_scf: 1.00e-06
GDM subspace size: 20
Beginning the Orthogonal Decomposition of the Initial Supersystem Wavefunction
    1    -536.3397750598      3.34e-01     ortho_decomp Preconditoned Steepest Descent
    2    -536.3535380785      4.37e-03     ortho_decomp BFGS Step
    3    -536.3535534644      3.07e-04     ortho_decomp BFGS Step
    4    -536.3535535233      1.43e-05     ortho_decomp BFGS Step
    5    -536.3535535233      4.40e-07     ortho_decomp 00000 Convergence criterion met
 Hartree-Fock
 Hartree-Fock
 Hartree-Fock
Doing General SCFMI
 Exchange:     0.1670 Hartree-Fock + 1.0000 wB97X-V + LR-HF
 Correlation:  1.0000 wB97X-V
 Using SG-2 standard quadrature grid
 Nonlocal Correlation:  VV10 with C = 0.0100 and b = 6.00 and scale = 1.00000
 Grid used for NLC:  SG-1 standard quadrature
performing fock build at end of subrot_r(subrot) constructor so that all methods have access
<S^2> of initial wavefunction before polarization iterations 0.0000000000
Beginning iterations for the determination of the polarized wavefunction
Energy prior to optimization (guess energy) = -536.518044210922
Begin Timing: Total SCF Calculation
begin iterations for algorithm: DIIS         
the SCF tolerance is set to 1.00e-08
    1    -536.5180442109      7.91e-04     00000 
    2    -536.5193908282      3.77e-04     00000 
    3    -536.5195419149      2.19e-04     00000 
    4    -536.5195917106      1.03e-04     00000 
    5    -536.5196006076      5.22e-05     00000 
    6    -536.5196025962      1.29e-05     00000 
    7    -536.5196027866      4.08e-06     00000 
    8    -536.5196028344      1.69e-06     00000 
    9    -536.5196028455      6.42e-07     00000 
   10    -536.5196028478      2.26e-07     00000 
   11    -536.5196028481      6.80e-08     00000 
   12    -536.5196028481      1.41e-08     00000 
   13    -536.5196028481      3.47e-09     00000 Convergence criterion met
write pseudocanon occs and virts to disk
write pseudocanon orbital energies to disk
Timing for Total SCF: 14.00s (wall), 13.71s (cpu)
<S^2> of polarized wavefunction after polarization iterations 0.0000000000
relaxing scfmi constraint to allow all rotations in the entire AO span
Doing General SCFMI
 Exchange:     0.1670 Hartree-Fock + 1.0000 wB97X-V + LR-HF
 Correlation:  1.0000 wB97X-V
 Using SG-2 standard quadrature grid
 Nonlocal Correlation:  VV10 with C = 0.0100 and b = 6.00 and scale = 1.00000
 Grid used for NLC:  SG-1 standard quadrature
performing fock build at end of subrot_r(subrot) constructor so that all methods have access
<S^2> of polarized wavefunction before ct-allowed iterations 0.0000000000
Beginning iterations for the determination of the CT-Allowed wavefunction
Energy prior to optimization (guess energy) = -536.519602848162
Begin Timing: Total SCF Calculation
begin iterations for algorithm: DIIS         
the SCF tolerance is set to 1.00e-08
    1    -536.5196028482      2.26e-03     00000 
    2    -536.5260144036      2.49e-04     00000 
    3    -536.5263500558      7.17e-05     00000 
    4    -536.5263743814      4.33e-05     00000 
    5    -536.5263789553      1.12e-05     00000 
    6    -536.5263793450      4.01e-06     00000 
    7    -536.5263794233      4.86e-07     00000 
    8    -536.5263794257      1.35e-07     00000 
    9    -536.5263794259      3.38e-08     00000 
   10    -536.5263794259      8.19e-09     00000 Convergence criterion met
write pseudocanon occs and virts to disk
write pseudocanon orbital energies to disk
Timing for Total SCF: 10.00s (wall), 10.31s (cpu)
<S^2> of ct_allowed wavefunction after ct-allowed iterations 0.0000000000
 Attempting to make child job directory: /aimm/scratch/qchem3384//FrgBSSE1/
 Attempting to make child job directory: /aimm/scratch/qchem3384//FrgBSSE2/
 Creating input file /aimm/scratch/qchem3384/FrgBSSE1.input
 calling putenv with: QCSCRATCH=/aimm/scratch/qchem3384/ 
 Spawning Job For Fragment 0
 Done Job For Fragment 0
 calling putenv with: QCSCRATCH=/aimm/scratch 
 calling putenv with: QCTHREADS=1 
 Creating input file /aimm/scratch/qchem3384/FrgBSSE2.input
 calling putenv with: QCSCRATCH=/aimm/scratch/qchem3384/ 
 Spawning Job For Fragment 1
 Done Job For Fragment 1
 calling putenv with: QCSCRATCH=/aimm/scratch 
 calling putenv with: QCTHREADS=1 
====================================================================
   Evaluating the BSSE with fragment SCF in the supersystem basis
   Fragment contributions (kJ/mol) 
   Frgm 1: 1.9078
   Frgm 2: 0.5616
   BSSE (kJ/mol) = 2.4693
====================================================================

================================
        Results of EDA2         
================================
Basic EDA Quantities
--------------------
Fragment Energies (Ha):
1 -460.1558667113
2  -76.3591018936
--------------------
  E_prp (kJ/mol) = 0.0000
  E_sol (kJ/mol) = 43.6322
  E_frz (kJ/mol) = -45.6542 (unscreened)
 [E_frz(solv) = -2.0220 kJ/mol (unscreened FRZ + SOL)]
  E_pol (kJ/mol) = -4.0923
  E_vct (kJ/mol) = -15.3228 (CP-corrected)
  E_int (kJ/mol) = -21.4370 (CP-corrected)
--------------------


Decomposition of frozen interaction energy
--------------------
  ------------------------------
  Classical Frozen Decomposition (unscreened):
  ------------------------------
     E_cls_elec  (CLS ELEC)  (kJ/mol) = -92.0390
     E_mod_pauli (MOD PAULI) (kJ/mol) = 57.9297 (FRZ - CLS ELEC - DISP)
     E_disp      (DISP)      (kJ/mol) = -11.5449
  ------------------------------
  Classical Decomposition Terms with Solvent Contributions:
  ------------------------------
     E_sol_elec              (kJ/mol) = 46.0173
     E_cls_elec(solv)        (kJ/mol) = -46.0217 (CLS ELEC + SOL ELEC)
     E_sol_nonelec           (kJ/mol) = -2.3851
     E_mod_pauli(solv)       (kJ/mol) = 55.5446 (MOD PAULI + SOL non-ELEC)
  --------------------
  ------------------------------
  Orthogonal Frozen Decomposition (unscreened):
  ------------------------------
     E_elec   (ELEC)   (kJ/mol) = -124.8361
     E_pauli  (PAULI)  (kJ/mol) = 90.7268
     E_disp   (DISP)   (kJ/mol) = -11.5449
  ------------------------------
  Orthogonal Decomposition Terms with Solvent Contribution:
  ------------------------------
     E_sol_elec        (kJ/mol) = 46.0173
     E_elec(solv)      (kJ/mol) = -78.8188 (ELEC + SOL ELEC)
     E_sol_nonelec     (kJ/mol) = -2.3851
     E_pauli(solv)     (kJ/mol) = 88.3417 (PAULI + SOL non-ELEC)
  --------------------
--------------------

Simplified EDA Summary (kJ/mol)
--------------------
 PREPARATION      0.0000
 SOLVATION        43.6322
 FROZEN           -45.6542 (unscreened ELEC + PAULI + DISP)
[ELEC + PAULI = -34.1093, DISP = -11.5449]
 POLARIZATION    -4.0923
 CHARGE TRANSFER -15.3228     (counterpoise-corrected)
 TOTAL           -21.4370     (PRP + SOL + FRZ + POL + CT)
--------------------
 
 --------------------------------------------------------------
 
                    Orbital Energies (a.u.)
 --------------------------------------------------------------
 
 Alpha MOs
 -- Occupied --
******** -19.2164  -9.4518  -7.2087  -7.2081  -7.2081  -1.1118  -0.8203
 -0.6190  -0.5056  -0.4234  -0.3452  -0.3422  -0.3420
 -- Virtual --
  0.1004   0.1298   0.1433   0.1473   0.1694   0.1850   0.1977   0.2275
  0.2870   0.2927   0.3081   0.3188   0.3270   0.3528   0.3651   0.4389
  0.4568   0.4863   0.4896   0.5176   0.6138   0.6537   0.6544   0.6927
  0.7305   0.7501   0.9411   1.0364   1.1390   1.1478   1.1549   1.1716
  1.1755   1.2093   1.2147   1.2715   1.3811   1.4224   1.5990   1.6689
  1.7952   1.8671   1.9501   2.0864   2.1247   2.3916   2.5135   3.1209
  3.1739   3.3320   3.7502   4.1765
 --------------------------------------------------------------
 
          Ground-State Mulliken Net Atomic Charges

     Atom                 Charge (a.u.)
  ----------------------------------------
      1 Cl                   -0.939208
      2 O                    -0.297754
      3 H                     0.075031
      4 H                     0.161930
  ----------------------------------------
  Sum of atomic charges =    -1.000000

 -----------------------------------------------------------------
                    Cartesian Multipole Moments
 -----------------------------------------------------------------
    Charge (ESU x 10^10)
                -4.8032
    Dipole Moment (Debye)
         X       2.6840      Y       1.6948      Z       0.0000
       Tot       3.1743
    Quadrupole Moments (Debye-Ang)
        XX     -35.9558     XY       4.2931     YY     -22.3415
        XZ       0.0000     YZ      -0.0000     ZZ     -24.8120
    Octopole Moments (Debye-Ang^2)
       XXX       4.5587    XXY       9.7396    XYY       8.0895
       YYY       1.7197    XXZ       0.0000    XYZ       0.0000
       YYZ       0.0000    XZZ       3.2078    YZZ       0.1535
       ZZZ       0.0000
    Hexadecapole Moments (Debye-Ang^3)
      XXXX    -366.4421   XXXY      24.2652   XXYY     -54.1420
      XYYY       6.1668   YYYY     -35.2053   XXXZ       0.0000
      XXYZ      -0.0000   XYYZ       0.0000   YYYZ      -0.0000
      XXZZ     -63.9642   XYZZ       1.1644   YYZZ     -12.2094
      XZZZ       0.0000   YZZZ      -0.0000   ZZZZ     -36.5617
 -----------------------------------------------------------------
 Total job time:  85.08s(wall), 41.07s(cpu) 
 Sun Feb  5 22:10:38 2023

        *************************************************************
        *                                                           *
        *  Thank you very much for using Q-Chem.  Have a nice day.  *
        *                                                           *
        *************************************************************


